
     Program PWSCF v.6.0 (svn rev. 13079) starts on 20Apr2018 at 19:11:15 

     This program is part of the open-source Quantum ESPRESSO suite
     for quantum simulation of materials; please cite
         "P. Giannozzi et al., J. Phys.:Condens. Matter 21 395502 (2009);
          URL http://www.quantum-espresso.org", 
     in publications or presentations arising from this work. More details at
     http://www.quantum-espresso.org/quote

     Parallel version (MPI), running on    28 processors
     R & G space division:  proc/nbgrp/npool/nimage =      28
     Reading input from ../H2O-20000.in

     Current dimensions of program PWSCF are:
     Max number of different atomic species (ntypx) = 10
     Max number of k-points (npk) =  40000
     Max angular momentum in pseudopotentials (lmaxx) =  3

     Subspace diagonalization in iterative solution of the eigenvalue problem:
     a serial algorithm will be used

 
     Parallelization info
     --------------------
     sticks:   dense  smooth     PW     G-vecs:    dense   smooth      PW
     Min         273     273     67                17945    17945    2235
     Max         274     274     68                17950    17950    2240
     Sum        7645    7645   1901               502479   502479   62669
 


     bravais-lattice index     =            1
     lattice parameter (alat)  =      20.0000  a.u.
     unit-cell volume          =    8000.0000 (a.u.)^3
     number of atoms/cell      =            3
     number of atomic types    =            2
     number of electrons       =         8.00
     number of Kohn-Sham states=            8
     kinetic-energy cutoff     =      60.0000  Ry
     charge density cutoff     =     240.0000  Ry
     convergence threshold     =      1.0E-08
     mixing beta               =       0.7000
     number of iterations used =            8  plain     mixing
     Exchange-correlation      = BLYP ( 1  3  1  3 0 0)
     nstep                     =         1000


     celldm(1)=  20.000000  celldm(2)=   0.000000  celldm(3)=   0.000000
     celldm(4)=   0.000000  celldm(5)=   0.000000  celldm(6)=   0.000000

     crystal axes: (cart. coord. in units of alat)
               a(1) = (   1.000000   0.000000   0.000000 )  
               a(2) = (   0.000000   1.000000   0.000000 )  
               a(3) = (   0.000000   0.000000   1.000000 )  

     reciprocal axes: (cart. coord. in units 2 pi/alat)
               b(1) = (  1.000000  0.000000  0.000000 )  
               b(2) = (  0.000000  1.000000  0.000000 )  
               b(3) = (  0.000000  0.000000  1.000000 )  


     PseudoPot. # 1 for  H read from file:
     ./H.blyp-hgh.UPF
     MD5 check sum: c576e69559cde411e611be972c763230
     Pseudo is Norm-conserving, Zval =  1.0
     Generated in analytical, separable form
     Using radial grid of  929 points,  0 beta functions with: 

     PseudoPot. # 2 for  O read from file:
     ./O.blyp-hgh.UPF
     MD5 check sum: d0b7156309aa9befef28faac7bc56342
     Pseudo is Norm-conserving, Zval =  6.0
     Generated in analytical, separable form
     Using radial grid of 1095 points,  1 beta functions with: 
                l(1) =   0

     atomic species   valence    mass     pseudopotential
        H              1.00     1.01000      H( 1.00)
        O              6.00    16.00000      O( 1.00)

     No symmetry found



   Cartesian axes

     site n.     atom                  positions (alat units)
         1           O   tau(   1) = (   0.0000000   0.0000000   0.0112686  )
         2           H   tau(   2) = (   0.0000000   0.0721156  -0.0450744  )
         3           H   tau(   3) = (   0.0000000  -0.0721156  -0.0450744  )

     number of k points=     1  Marzari-Vanderbilt smearing, width (Ry)=  0.0250
                       cart. coord. in units 2pi/alat
        k(    1) = (   0.0000000   0.0000000   0.0000000), wk =   2.0000000

     Dense  grid:   502479 G-vectors     FFT dimensions: ( 100, 100, 100)

     Estimated max dynamical RAM per process >      17.25Mb

     Estimated total allocated dynamical RAM >     483.03Mb

     Initial potential from superposition of free atoms
     Check: negative starting charge=   -0.071145

     starting charge    7.99998, renormalised to    8.00000

     negative rho (up, down):  7.115E-02 0.000E+00
     Starting wfc are    6 randomized atomic wfcs +    2 random wfc

     total cpu time spent up to now is        0.4 secs

     per-process dynamical memory:    30.5 Mb

     Self-consistent Calculation

     iteration #  1     ecut=    60.00 Ry     beta=0.70
     Davidson diagonalization with overlap
     ethr =  1.00E-02,  avg # of iterations =  8.0

     negative rho (up, down):  2.059E-02 0.000E+00

     total cpu time spent up to now is        0.6 secs

     total energy              =     -33.66095752 Ry
     Harris-Foulkes estimate   =     -33.73037087 Ry
     estimated scf accuracy    <       0.20731731 Ry

     iteration #  2     ecut=    60.00 Ry     beta=0.70
     Davidson diagonalization with overlap
     ethr =  2.59E-03,  avg # of iterations =  2.0

     negative rho (up, down):  1.160E-02 0.000E+00

     total cpu time spent up to now is        0.7 secs

     total energy              =     -33.69154141 Ry
     Harris-Foulkes estimate   =     -33.75067961 Ry
     estimated scf accuracy    <       0.13672646 Ry

     iteration #  3     ecut=    60.00 Ry     beta=0.70
     Davidson diagonalization with overlap
     ethr =  1.71E-03,  avg # of iterations =  2.0

     negative rho (up, down):  2.425E-04 0.000E+00

     total cpu time spent up to now is        0.8 secs

     total energy              =     -33.73645651 Ry
     Harris-Foulkes estimate   =     -33.72668477 Ry
     estimated scf accuracy    <       0.00681938 Ry

     iteration #  4     ecut=    60.00 Ry     beta=0.70
     Davidson diagonalization with overlap
     ethr =  8.52E-05,  avg # of iterations =  8.0

     negative rho (up, down):  2.472E-04 0.000E+00

     total cpu time spent up to now is        0.9 secs

     total energy              =     -33.73796938 Ry
     Harris-Foulkes estimate   =     -33.73799256 Ry
     estimated scf accuracy    <       0.00005665 Ry

     iteration #  5     ecut=    60.00 Ry     beta=0.70
     Davidson diagonalization with overlap
     ethr =  7.08E-07,  avg # of iterations = 12.0

     negative rho (up, down):  1.549E-05 0.000E+00

     total cpu time spent up to now is        1.0 secs

     total energy              =     -33.73797920 Ry
     Harris-Foulkes estimate   =     -33.73798342 Ry
     estimated scf accuracy    <       0.00000504 Ry

     iteration #  6     ecut=    60.00 Ry     beta=0.70
     Davidson diagonalization with overlap
     ethr =  6.29E-08,  avg # of iterations = 10.0

     total cpu time spent up to now is        1.1 secs

     total energy              =     -33.74205619 Ry
     Harris-Foulkes estimate   =     -33.74205731 Ry
     estimated scf accuracy    <       0.00000017 Ry

     iteration #  7     ecut=    60.00 Ry     beta=0.70
     Davidson diagonalization with overlap
     ethr =  2.09E-09,  avg # of iterations =  2.0

     total cpu time spent up to now is        1.2 secs

     End of self-consistent calculation

          k = 0.0000 0.0000 0.0000 ( 62669 PWs)   bands (ev):

   -25.4812 -12.9157  -9.2080  -7.0609  -0.9110   0.4220   0.7968   1.1102

     the Fermi energy is    -5.1975 ev

!    total energy              =     -33.74205615 Ry
     Harris-Foulkes estimate   =     -33.74205623 Ry
     estimated scf accuracy    <          9.0E-09 Ry

     convergence has been achieved in   7 iterations

     Forces acting on atoms (Ry/au):

     atom    1 type  2   force =     0.00000338    0.00000165    0.05215122
     atom    2 type  1   force =    -0.00000165    0.02843773   -0.02607547
     atom    3 type  1   force =    -0.00000173   -0.02843938   -0.02607575

     Total force =     0.075479     Total SCF correction =     0.000161

     Molecular Dynamics Calculation

     Starting temperature  = 20000.00 K

     temperature is controlled by Andersen thermostat
     Collision frequency = 1.0000/timestep
     mass H                =     1.01
     mass O                =    16.00
     Time step             =    10.00 a.u.,  0.4838 femto-seconds

     Entering Dynamics:    iteration =     1
                           time      =   0.0005 pico-seconds


     Andersen thermostat:    3 collisions

ATOMIC_POSITIONS (angstrom)
O        0.001195485   0.010169416   0.121774315
H       -0.012859734   0.670744821  -0.513032442
H       -0.006078647  -0.831844474  -0.480860604


     kinetic energy (Ekin) =     0.27135760 Ry
     temperature           = 14281.30829725 K 
     Ekin + Etot (const)   =   -33.47069855 Ry

     Linear momentum :    0.0000000000    0.0000000000    0.0000000000

     Writing output data file pwscf.save
     Check: negative starting charge=   -0.071145
     NEW-OLD atomic charge density approx. for the potential
     Check: negative starting charge=   -0.071138

     negative rho (up, down):  1.292E-02 0.000E+00

     total cpu time spent up to now is        1.7 secs

     per-process dynamical memory:    32.7 Mb

     Self-consistent Calculation

     iteration #  1     ecut=    60.00 Ry     beta=0.70
     Davidson diagonalization with overlap
     c_bands:  1 eigenvalues not converged
     ethr =  1.00E-06,  avg # of iterations = 20.0

     negative rho (up, down):  3.185E-03 0.000E+00

     total cpu time spent up to now is        1.9 secs

     total energy              =     -33.72438271 Ry
     Harris-Foulkes estimate   =     -33.71310397 Ry
     estimated scf accuracy    <       0.00230293 Ry

     iteration #  2     ecut=    60.00 Ry     beta=0.70
     Davidson diagonalization with overlap
     ethr =  2.88E-05,  avg # of iterations =  5.0

     negative rho (up, down):  6.637E-04 0.000E+00

     total cpu time spent up to now is        2.0 secs

     total energy              =     -33.72650724 Ry
     Harris-Foulkes estimate   =     -33.72465787 Ry
     estimated scf accuracy    <       0.00018284 Ry

     iteration #  3     ecut=    60.00 Ry     beta=0.70
     Davidson diagonalization with overlap
     c_bands:  1 eigenvalues not converged
     ethr =  2.29E-06,  avg # of iterations = 20.0

     negative rho (up, down):  7.351E-05 0.000E+00

     total cpu time spent up to now is        2.2 secs

     total energy              =     -33.72653348 Ry
     Harris-Foulkes estimate   =     -33.72654471 Ry
     estimated scf accuracy    <       0.00003215 Ry

     iteration #  4     ecut=    60.00 Ry     beta=0.70
     Davidson diagonalization with overlap
     ethr =  4.02E-07,  avg # of iterations = 10.0

     negative rho (up, down):  4.797E-06 0.000E+00

     total cpu time spent up to now is        2.3 secs

     total energy              =     -33.72653927 Ry
     Harris-Foulkes estimate   =     -33.72654578 Ry
     estimated scf accuracy    <       0.00000936 Ry

     iteration #  5     ecut=    60.00 Ry     beta=0.70
     Davidson diagonalization with overlap
     ethr =  1.17E-07,  avg # of iterations =  2.0

     total cpu time spent up to now is        2.4 secs

     total energy              =     -33.72654090 Ry
     Harris-Foulkes estimate   =     -33.72654120 Ry
     estimated scf accuracy    <       0.00000006 Ry

     iteration #  6     ecut=    60.00 Ry     beta=0.70
     Davidson diagonalization with overlap
     ethr =  7.46E-10,  avg # of iterations =  2.0

     total cpu time spent up to now is        2.4 secs

     End of self-consistent calculation

          k = 0.0000 0.0000 0.0000 ( 62669 PWs)   bands (ev):

   -25.5350 -12.6767  -9.3714  -7.0654  -0.9761   0.3831   0.7971   1.1081

     the Fermi energy is    -6.7521 ev

!    total energy              =     -33.72654087 Ry
     Harris-Foulkes estimate   =     -33.72654094 Ry
     estimated scf accuracy    <          3.2E-09 Ry

     convergence has been achieved in   6 iterations

     Forces acting on atoms (Ry/au):

     atom    1 type  2   force =     0.00207490   -0.16351567    0.06773334
     atom    2 type  1   force =    -0.00250334    0.12166820   -0.10645570
     atom    3 type  1   force =     0.00042844    0.04184747    0.03872236

     Total force =     0.246419     Total SCF correction =     0.000156

     Entering Dynamics:    iteration =     2
                           time      =   0.0010 pico-seconds


     Andersen thermostat:    3 collisions

ATOMIC_POSITIONS (angstrom)
O        0.004074727   0.016608362   0.127724163
H       -0.147060501   0.632505897  -0.682453014
H        0.082510369  -0.895608665  -0.405695052


     kinetic energy (Ekin) =     1.11100059 Ry
     temperature           = 58470.97017404 K 
     Ekin + Etot (const)   =   -32.61554027 Ry
     Message from routine dynamics:
     Total linear momentum <> 0

     Linear momentum :    0.6409935257    0.7926789831    0.8014261851

     Writing output data file pwscf.save

     first order wave-functions extrapolation
     Check: negative starting charge=   -0.071138
     first order charge density extrapolation
     Check: negative starting charge=   -0.071038

     negative rho (up, down):  8.974E-03 0.000E+00

     total cpu time spent up to now is        3.1 secs

     per-process dynamical memory:    32.7 Mb

     Self-consistent Calculation

     iteration #  1     ecut=    60.00 Ry     beta=0.70
     Davidson diagonalization with overlap
     c_bands:  1 eigenvalues not converged
     ethr =  1.00E-06,  avg # of iterations = 20.0

     negative rho (up, down):  2.239E-03 0.000E+00

     total cpu time spent up to now is        3.3 secs

     total energy              =     -33.72567279 Ry
     Harris-Foulkes estimate   =     -33.72591494 Ry
     estimated scf accuracy    <       0.01833163 Ry

     iteration #  2     ecut=    60.00 Ry     beta=0.70
     Davidson diagonalization with overlap
     ethr =  2.29E-04,  avg # of iterations =  4.0

     negative rho (up, down):  1.312E-03 0.000E+00

     total cpu time spent up to now is        3.4 secs

     total energy              =     -33.73255745 Ry
     Harris-Foulkes estimate   =     -33.73875988 Ry
     estimated scf accuracy    <       0.01392073 Ry

     iteration #  3     ecut=    60.00 Ry     beta=0.70
     Davidson diagonalization with overlap
     ethr =  1.74E-04,  avg # of iterations =  2.0

     negative rho (up, down):  1.027E-04 0.000E+00

     total cpu time spent up to now is        3.5 secs

     total energy              =     -33.73191155 Ry
     Harris-Foulkes estimate   =     -33.73193142 Ry
     estimated scf accuracy    <       0.00064834 Ry

     iteration #  4     ecut=    60.00 Ry     beta=0.70
     Davidson diagonalization with overlap
     ethr =  8.10E-06,  avg # of iterations = 11.0

     negative rho (up, down):  4.670E-06 0.000E+00

     total cpu time spent up to now is        3.6 secs

     total energy              =     -33.73609898 Ry
     Harris-Foulkes estimate   =     -33.73610207 Ry
     estimated scf accuracy    <       0.00000659 Ry

     iteration #  5     ecut=    60.00 Ry     beta=0.70
     Davidson diagonalization with overlap
     ethr =  8.23E-08,  avg # of iterations =  9.0

     total cpu time spent up to now is        3.7 secs

     total energy              =     -33.73610034 Ry
     Harris-Foulkes estimate   =     -33.73610097 Ry
     estimated scf accuracy    <       0.00000040 Ry

     iteration #  6     ecut=    60.00 Ry     beta=0.70
     Davidson diagonalization with overlap
     ethr =  4.98E-09,  avg # of iterations =  2.0

     total cpu time spent up to now is        3.8 secs

     total energy              =     -33.73610023 Ry
     Harris-Foulkes estimate   =     -33.73610039 Ry
     estimated scf accuracy    <       0.00000001 Ry

     iteration #  7     ecut=    60.00 Ry     beta=0.70
     Davidson diagonalization with overlap
     ethr =  1.66E-10,  avg # of iterations =  2.0

     total cpu time spent up to now is        3.8 secs

     End of self-consistent calculation

          k = 0.0000 0.0000 0.0000 ( 62669 PWs)   bands (ev):

   -24.8165 -11.9574  -9.4314  -6.9579  -1.1620   0.3434   0.6190   1.1180

     the Fermi energy is    -5.0255 ev

!    total energy              =     -33.73610023 Ry
     Harris-Foulkes estimate   =     -33.73610023 Ry
     estimated scf accuracy    <          1.8E-10 Ry

     convergence has been achieved in   7 iterations

     Forces acting on atoms (Ry/au):

     atom    1 type  2   force =    -0.00128977   -0.04403697   -0.08730490
     atom    2 type  1   force =     0.00596721   -0.01922813    0.04024891
     atom    3 type  1   force =    -0.00467744    0.06326510    0.04705599

     Total force =     0.133518     Total SCF correction =     0.000032

     Entering Dynamics:    iteration =     3
                           time      =   0.0015 pico-seconds


     Andersen thermostat:    3 collisions

ATOMIC_POSITIONS (angstrom)
O        0.009446859   0.015950695   0.130763742
H       -0.082471137   0.638167752  -0.684005296
H       -0.067182075  -0.890852025  -0.452294521


     kinetic energy (Ekin) =     0.49332990 Ry
     temperature           = 25963.51282992 K 
     Ekin + Etot (const)   =   -33.24277032 Ry
     Message from routine dynamics:
     Total linear momentum <> 0

     Linear momentum :    0.1380898242   -0.3802368102    0.7313410079

     Writing output data file pwscf.save

     second order wave-functions extrapolation
     Check: negative starting charge=   -0.071038
     second order charge density extrapolation
     Check: negative starting charge=   -0.071014

     negative rho (up, down):  1.005E-02 0.000E+00

     total cpu time spent up to now is        4.5 secs

     per-process dynamical memory:    32.7 Mb

     Self-consistent Calculation

     iteration #  1     ecut=    60.00 Ry     beta=0.70
     Davidson diagonalization with overlap
     c_bands:  1 eigenvalues not converged
     ethr =  1.00E-06,  avg # of iterations = 20.0

     negative rho (up, down):  2.550E-03 0.000E+00

     total cpu time spent up to now is        4.8 secs

     total energy              =     -33.72408395 Ry
     Harris-Foulkes estimate   =     -33.71713338 Ry
     estimated scf accuracy    <       0.00484660 Ry

     iteration #  2     ecut=    60.00 Ry     beta=0.70
     Davidson diagonalization with overlap
     ethr =  6.06E-05,  avg # of iterations =  5.0

     negative rho (up, down):  1.600E-03 0.000E+00

     total cpu time spent up to now is        4.9 secs

     total energy              =     -33.72567246 Ry
     Harris-Foulkes estimate   =     -33.72727696 Ry
     estimated scf accuracy    <       0.00530510 Ry

     iteration #  3     ecut=    60.00 Ry     beta=0.70
     Davidson diagonalization with overlap
     ethr =  6.06E-05,  avg # of iterations =  2.0

     negative rho (up, down):  4.635E-05 0.000E+00

     total cpu time spent up to now is        4.9 secs

     total energy              =     -33.72704781 Ry
     Harris-Foulkes estimate   =     -33.72680413 Ry
     estimated scf accuracy    <       0.00008768 Ry

     iteration #  4     ecut=    60.00 Ry     beta=0.70
     Davidson diagonalization with overlap
     c_bands:  1 eigenvalues not converged
     ethr =  1.10E-06,  avg # of iterations = 20.0

     negative rho (up, down):  1.922E-07 0.000E+00

     total cpu time spent up to now is        5.1 secs

     total energy              =     -33.73113895 Ry
     Harris-Foulkes estimate   =     -33.73114114 Ry
     estimated scf accuracy    <       0.00000087 Ry

     iteration #  5     ecut=    60.00 Ry     beta=0.70
     Davidson diagonalization with overlap
     ethr =  1.09E-08,  avg # of iterations =  2.0

     total cpu time spent up to now is        5.2 secs

     total energy              =     -33.73113887 Ry
     Harris-Foulkes estimate   =     -33.73113914 Ry
     estimated scf accuracy    <       0.00000004 Ry

     iteration #  6     ecut=    60.00 Ry     beta=0.70
     Davidson diagonalization with overlap
     ethr =  4.41E-10,  avg # of iterations =  2.0

     total cpu time spent up to now is        5.2 secs

     End of self-consistent calculation

          k = 0.0000 0.0000 0.0000 ( 62669 PWs)   bands (ev):

   -24.7737 -11.7229  -9.5829  -6.9575  -1.2166   0.3238   0.5945   1.0895

     the Fermi energy is    -5.0362 ev

!    total energy              =     -33.73113879 Ry
     Harris-Foulkes estimate   =     -33.73113887 Ry
     estimated scf accuracy    <          2.7E-09 Ry

     convergence has been achieved in   6 iterations

     Forces acting on atoms (Ry/au):

     atom    1 type  2   force =    -0.01358260   -0.06007759   -0.10876819
     atom    2 type  1   force =     0.00510240   -0.01100510    0.04324337
     atom    3 type  1   force =     0.00848020    0.07108269    0.06552482

     Total force =     0.164498     Total SCF correction =     0.000195

     Entering Dynamics:    iteration =     4
                           time      =   0.0019 pico-seconds


     Andersen thermostat:    3 collisions

ATOMIC_POSITIONS (angstrom)
O        0.007074801   0.011780723   0.124282605
H       -0.035347512   0.697826374  -0.618642114
H       -0.076728541  -0.884451692  -0.414986226


     kinetic energy (Ekin) =     0.31832128 Ry
     temperature           = 16752.96516357 K 
     Ekin + Etot (const)   =   -33.41281751 Ry
     Message from routine dynamics:
     Total linear momentum <> 0

     Linear momentum :    3.0409030932   -0.5780402082    0.1105183008

     Writing output data file pwscf.save

     second order wave-functions extrapolation
     Check: negative starting charge=   -0.071014
     second order charge density extrapolation
     Check: negative starting charge=   -0.071034

     negative rho (up, down):  5.114E-03 0.000E+00

     total cpu time spent up to now is        5.9 secs

     per-process dynamical memory:    32.7 Mb

     Self-consistent Calculation

     iteration #  1     ecut=    60.00 Ry     beta=0.70
     Davidson diagonalization with overlap
     c_bands:  1 eigenvalues not converged
     ethr =  1.00E-06,  avg # of iterations = 20.0

     negative rho (up, down):  1.279E-03 0.000E+00

     total cpu time spent up to now is        6.1 secs

     total energy              =     -33.73491540 Ry
     Harris-Foulkes estimate   =     -33.73074109 Ry
     estimated scf accuracy    <       0.00051941 Ry

     iteration #  2     ecut=    60.00 Ry     beta=0.70
     Davidson diagonalization with overlap
     ethr =  6.49E-06,  avg # of iterations = 10.0

     negative rho (up, down):  1.585E-04 0.000E+00

     total cpu time spent up to now is        6.2 secs

     total energy              =     -33.73509585 Ry
     Harris-Foulkes estimate   =     -33.73496786 Ry
     estimated scf accuracy    <       0.00003653 Ry

     iteration #  3     ecut=    60.00 Ry     beta=0.70
     Davidson diagonalization with overlap
     ethr =  4.57E-07,  avg # of iterations =  6.0

     negative rho (up, down):  1.758E-05 0.000E+00

     total cpu time spent up to now is        6.3 secs

     total energy              =     -33.73917530 Ry
     Harris-Foulkes estimate   =     -33.73918052 Ry
     estimated scf accuracy    <       0.00000731 Ry

     iteration #  4     ecut=    60.00 Ry     beta=0.70
     Davidson diagonalization with overlap
     ethr =  9.13E-08,  avg # of iterations =  2.0

     negative rho (up, down):  1.545E-07 0.000E+00

     total cpu time spent up to now is        6.4 secs

     total energy              =     -33.73917690 Ry
     Harris-Foulkes estimate   =     -33.73917830 Ry
     estimated scf accuracy    <       0.00000233 Ry

     iteration #  5     ecut=    60.00 Ry     beta=0.70
     Davidson diagonalization with overlap
     ethr =  2.92E-08,  avg # of iterations =  2.0

     total cpu time spent up to now is        6.5 secs

     total energy              =     -33.73917726 Ry
     Harris-Foulkes estimate   =     -33.73917738 Ry
     estimated scf accuracy    <       0.00000001 Ry

     iteration #  6     ecut=    60.00 Ry     beta=0.70
     Davidson diagonalization with overlap
     ethr =  1.59E-10,  avg # of iterations =  2.0

     total cpu time spent up to now is        6.5 secs

     End of self-consistent calculation

          k = 0.0000 0.0000 0.0000 ( 62669 PWs)   bands (ev):

   -24.8867 -12.2509  -9.2464  -6.9606  -1.1105   0.3575   0.6566   1.1122

     the Fermi energy is    -5.0474 ev

!    total energy              =     -33.73917725 Ry
     Harris-Foulkes estimate   =     -33.73917727 Ry
     estimated scf accuracy    <          1.0E-09 Ry

     convergence has been achieved in   6 iterations

     Forces acting on atoms (Ry/au):

     atom    1 type  2   force =    -0.00647286   -0.04276645   -0.05450328
     atom    2 type  1   force =     0.00085141   -0.01912258    0.01866889
     atom    3 type  1   force =     0.00562145    0.06188903    0.03583439

     Total force =     0.103452     Total SCF correction =     0.000074

     Entering Dynamics:    iteration =     5
                           time      =   0.0024 pico-seconds


     Andersen thermostat:    3 collisions

ATOMIC_POSITIONS (angstrom)
O        0.006621009   0.004255296   0.121577075
H        0.017829339   0.822592435  -0.620919775
H       -0.122716616  -0.890003063  -0.369848685


     kinetic energy (Ekin) =     0.41834733 Ry
     temperature           = 22017.24688726 K 
     Ekin + Etot (const)   =   -33.32082992 Ry
     Message from routine dynamics:
     Total linear momentum <> 0

     Linear momentum :   -0.3942576309    1.4738034489   -0.3113893164

     Writing output data file pwscf.save

     second order wave-functions extrapolation
     Check: negative starting charge=   -0.071034
     second order charge density extrapolation
     Check: negative starting charge=   -0.070617

     negative rho (up, down):  7.174E-03 0.000E+00

     total cpu time spent up to now is        7.1 secs

     per-process dynamical memory:    32.7 Mb

     Self-consistent Calculation

     iteration #  1     ecut=    60.00 Ry     beta=0.70
     Davidson diagonalization with overlap
     ethr =  1.00E-06,  avg # of iterations = 20.0

     negative rho (up, down):  1.818E-03 0.000E+00

     total cpu time spent up to now is        7.4 secs

     total energy              =     -33.71699958 Ry
     Harris-Foulkes estimate   =     -33.71381490 Ry
     estimated scf accuracy    <       0.00616273 Ry

     iteration #  2     ecut=    60.00 Ry     beta=0.70
     Davidson diagonalization with overlap
     ethr =  7.70E-05,  avg # of iterations =  5.0

     negative rho (up, down):  1.125E-03 0.000E+00

     total cpu time spent up to now is        7.5 secs

     total energy              =     -33.72237343 Ry
     Harris-Foulkes estimate   =     -33.72508809 Ry
     estimated scf accuracy    <       0.00650550 Ry

     iteration #  3     ecut=    60.00 Ry     beta=0.70
     Davidson diagonalization with overlap
     ethr =  7.70E-05,  avg # of iterations =  2.0

     negative rho (up, down):  1.024E-04 0.000E+00

     total cpu time spent up to now is        7.6 secs

     total energy              =     -33.71975318 Ry
     Harris-Foulkes estimate   =     -33.71970716 Ry
     estimated scf accuracy    <       0.00010807 Ry

     iteration #  4     ecut=    60.00 Ry     beta=0.70
     Davidson diagonalization with overlap
     ethr =  1.35E-06,  avg # of iterations = 17.0

     negative rho (up, down):  7.386E-06 0.000E+00

     total cpu time spent up to now is        7.7 secs

     total energy              =     -33.72384880 Ry
     Harris-Foulkes estimate   =     -33.72385188 Ry
     estimated scf accuracy    <       0.00000214 Ry

     iteration #  5     ecut=    60.00 Ry     beta=0.70
     Davidson diagonalization with overlap
     ethr =  2.68E-08,  avg # of iterations =  2.0

     negative rho (up, down):  1.616E-08 0.000E+00

     total cpu time spent up to now is        7.8 secs

     total energy              =     -33.72384831 Ry
     Harris-Foulkes estimate   =     -33.72384928 Ry
     estimated scf accuracy    <       0.00000010 Ry

     iteration #  6     ecut=    60.00 Ry     beta=0.70
     Davidson diagonalization with overlap
     ethr =  1.25E-09,  avg # of iterations =  2.0

     total cpu time spent up to now is        7.8 secs

     End of self-consistent calculation

          k = 0.0000 0.0000 0.0000 ( 62669 PWs)   bands (ev):

   -24.4792 -12.2752  -8.8256  -6.8641  -1.2799   0.2976   0.5466   1.0984

     the Fermi energy is    -4.9559 ev

!    total energy              =     -33.72384813 Ry
     Harris-Foulkes estimate   =     -33.72384833 Ry
     estimated scf accuracy    <          3.5E-09 Ry

     convergence has been achieved in   6 iterations

     Forces acting on atoms (Ry/au):

     atom    1 type  2   force =    -0.00036040    0.05443982   -0.07269336
     atom    2 type  1   force =    -0.00486419   -0.11116501    0.06966091
     atom    3 type  1   force =     0.00522459    0.05672518    0.00303245

     Total force =     0.169518     Total SCF correction =     0.000584

     Entering Dynamics:    iteration =     6
                           time      =   0.0029 pico-seconds


     Andersen thermostat:    3 collisions

ATOMIC_POSITIONS (angstrom)
O        0.004444980   0.008562242   0.113570840
H        0.042897517   0.753597943  -0.601040655
H       -0.113313042  -0.889237422  -0.262896347


     kinetic energy (Ekin) =     0.31425779 Ry
     temperature           = 16539.10721749 K 
     Ekin + Etot (const)   =   -33.40959034 Ry
     Message from routine dynamics:
     Total linear momentum <> 0

     Linear momentum :    0.6099280059   -0.4321422709   -0.8819351442

     Writing output data file pwscf.save

     second order wave-functions extrapolation
     Check: negative starting charge=   -0.070617
     second order charge density extrapolation
     Check: negative starting charge=   -0.070887

     negative rho (up, down):  8.166E-03 0.000E+00

     total cpu time spent up to now is        8.5 secs

     per-process dynamical memory:    32.7 Mb

     Self-consistent Calculation

     iteration #  1     ecut=    60.00 Ry     beta=0.70
     Davidson diagonalization with overlap
     c_bands:  1 eigenvalues not converged
     ethr =  1.00E-06,  avg # of iterations = 20.0

     negative rho (up, down):  2.056E-03 0.000E+00

     total cpu time spent up to now is        8.7 secs

     total energy              =     -33.72968938 Ry
     Harris-Foulkes estimate   =     -33.72271471 Ry
     estimated scf accuracy    <       0.00216524 Ry

     iteration #  2     ecut=    60.00 Ry     beta=0.70
     Davidson diagonalization with overlap
     ethr =  2.71E-05,  avg # of iterations =  5.0

     negative rho (up, down):  1.184E-03 0.000E+00

     total cpu time spent up to now is        8.8 secs

     total energy              =     -33.73055017 Ry
     Harris-Foulkes estimate   =     -33.73077819 Ry
     estimated scf accuracy    <       0.00167851 Ry

     iteration #  3     ecut=    60.00 Ry     beta=0.70
     Davidson diagonalization with overlap
     ethr =  2.10E-05,  avg # of iterations =  8.0

     negative rho (up, down):  2.542E-06 0.000E+00

     total cpu time spent up to now is        8.9 secs

     total energy              =     -33.73101791 Ry
     Harris-Foulkes estimate   =     -33.73094668 Ry
     estimated scf accuracy    <       0.00006593 Ry

     iteration #  4     ecut=    60.00 Ry     beta=0.70
     Davidson diagonalization with overlap
     ethr =  8.24E-07,  avg # of iterations =  5.0

     negative rho (up, down):  5.355E-08 0.000E+00

     total cpu time spent up to now is        9.0 secs

     total energy              =     -33.73510723 Ry
     Harris-Foulkes estimate   =     -33.73510729 Ry
     estimated scf accuracy    <       0.00000046 Ry

     iteration #  5     ecut=    60.00 Ry     beta=0.70
     Davidson diagonalization with overlap
     ethr =  5.73E-09,  avg # of iterations =  3.0

     total cpu time spent up to now is        9.1 secs

     total energy              =     -33.73510741 Ry
     Harris-Foulkes estimate   =     -33.73510744 Ry
     estimated scf accuracy    <       0.00000004 Ry

     iteration #  6     ecut=    60.00 Ry     beta=0.70
     Davidson diagonalization with overlap
     ethr =  4.99E-10,  avg # of iterations =  2.0

     total cpu time spent up to now is        9.2 secs

     End of self-consistent calculation

          k = 0.0000 0.0000 0.0000 ( 62669 PWs)   bands (ev):

   -24.9491 -12.9822  -8.6793  -6.9435  -1.0389   0.3761   0.6925   1.1154

     the Fermi energy is    -5.0605 ev

!    total energy              =     -33.73510743 Ry
     Harris-Foulkes estimate   =     -33.73510742 Ry
     estimated scf accuracy    <          1.5E-09 Ry

     convergence has been achieved in   6 iterations

     Forces acting on atoms (Ry/au):

     atom    1 type  2   force =     0.00932311    0.06644212    0.01000815
     atom    2 type  1   force =    -0.00685365   -0.06897141    0.02337066
     atom    3 type  1   force =    -0.00246946    0.00252929   -0.03337881

     Total force =     0.105254     Total SCF correction =     0.000082

     Entering Dynamics:    iteration =     7
                           time      =   0.0034 pico-seconds


     Andersen thermostat:    3 collisions

ATOMIC_POSITIONS (angstrom)
O        0.005328017   0.008707324   0.121981021
H        0.022545435   0.702612385  -0.645256521
H       -0.106949663  -0.840550187  -0.351911081


     kinetic energy (Ekin) =     0.28152867 Ry
     temperature           = 14816.60291207 K 
     Ekin + Etot (const)   =   -33.45357876 Ry
     Message from routine dynamics:
     Total linear momentum <> 0

     Linear momentum :    0.5079277645   -0.3172395636    1.0086236496

     Writing output data file pwscf.save

     second order wave-functions extrapolation
     Check: negative starting charge=   -0.070887
     second order charge density extrapolation
     Check: negative starting charge=   -0.071085

     negative rho (up, down):  4.308E-03 0.000E+00

     total cpu time spent up to now is        9.8 secs

     per-process dynamical memory:    32.7 Mb

     Self-consistent Calculation

     iteration #  1     ecut=    60.00 Ry     beta=0.70
     Davidson diagonalization with overlap
     c_bands:  1 eigenvalues not converged
     ethr =  1.00E-06,  avg # of iterations = 20.0

     negative rho (up, down):  1.052E-03 0.000E+00

     total cpu time spent up to now is       10.0 secs

     total energy              =     -33.73682231 Ry
     Harris-Foulkes estimate   =     -33.73380427 Ry
     estimated scf accuracy    <       0.00067273 Ry

     iteration #  2     ecut=    60.00 Ry     beta=0.70
     Davidson diagonalization with overlap
     ethr =  8.41E-06,  avg # of iterations = 15.0

     negative rho (up, down):  3.645E-04 0.000E+00

     total cpu time spent up to now is       10.1 secs

     total energy              =     -33.73693454 Ry
     Harris-Foulkes estimate   =     -33.73695097 Ry
     estimated scf accuracy    <       0.00014581 Ry

     iteration #  3     ecut=    60.00 Ry     beta=0.70
     Davidson diagonalization with overlap
     ethr =  1.82E-06,  avg # of iterations =  5.0

     negative rho (up, down):  3.188E-05 0.000E+00

     total cpu time spent up to now is       10.2 secs

     total energy              =     -33.74104268 Ry
     Harris-Foulkes estimate   =     -33.74107299 Ry
     estimated scf accuracy    <       0.00006100 Ry

     iteration #  4     ecut=    60.00 Ry     beta=0.70
     Davidson diagonalization with overlap
     ethr =  7.62E-07,  avg # of iterations =  9.0

     negative rho (up, down):  5.875E-07 0.000E+00

     total cpu time spent up to now is       10.3 secs

     total energy              =     -33.74105460 Ry
     Harris-Foulkes estimate   =     -33.74105549 Ry
     estimated scf accuracy    <       0.00000078 Ry

     iteration #  5     ecut=    60.00 Ry     beta=0.70
     Davidson diagonalization with overlap
     ethr =  9.74E-09,  avg # of iterations =  2.0

     total cpu time spent up to now is       10.4 secs

     total energy              =     -33.74105479 Ry
     Harris-Foulkes estimate   =     -33.74105484 Ry
     estimated scf accuracy    <       0.00000002 Ry

     iteration #  6     ecut=    60.00 Ry     beta=0.70
     Davidson diagonalization with overlap
     ethr =  2.68E-10,  avg # of iterations =  2.0

     total cpu time spent up to now is       10.4 secs

     End of self-consistent calculation

          k = 0.0000 0.0000 0.0000 ( 62669 PWs)   bands (ev):

   -25.1070 -12.5232  -9.2013  -6.9949  -1.0338   0.3770   0.7176   1.1209

     the Fermi energy is    -5.0959 ev

!    total energy              =     -33.74105474 Ry
     Harris-Foulkes estimate   =     -33.74105480 Ry
     estimated scf accuracy    <          9.0E-10 Ry

     convergence has been achieved in   6 iterations

     Forces acting on atoms (Ry/au):

     atom    1 type  2   force =     0.00441630    0.05877297   -0.02662761
     atom    2 type  1   force =    -0.00162635   -0.04131245    0.04031591
     atom    3 type  1   force =    -0.00278995   -0.01746052   -0.01368830

     Total force =     0.089541     Total SCF correction =     0.000158

     Entering Dynamics:    iteration =     8
                           time      =   0.0039 pico-seconds


     Andersen thermostat:    3 collisions

ATOMIC_POSITIONS (angstrom)
O        0.007460129   0.011957975   0.120757989
H        0.037247407   0.708348443  -0.624188450
H       -0.155427663  -0.897781714  -0.353604380


     kinetic energy (Ekin) =     0.19565550 Ry
     temperature           = 10297.17455573 K 
     Ekin + Etot (const)   =   -33.54539924 Ry
     Message from routine dynamics:
     Total linear momentum <> 0

     Linear momentum :   -1.3347921608   -2.2913298293    0.5448005036

     Writing output data file pwscf.save

     second order wave-functions extrapolation
     Check: negative starting charge=   -0.071085
     second order charge density extrapolation
     Check: negative starting charge=   -0.070965

     negative rho (up, down):  4.917E-03 0.000E+00

     total cpu time spent up to now is       11.0 secs

     per-process dynamical memory:    32.7 Mb

     Self-consistent Calculation

     iteration #  1     ecut=    60.00 Ry     beta=0.70
     Davidson diagonalization with overlap
     c_bands:  1 eigenvalues not converged
     ethr =  1.00E-06,  avg # of iterations = 20.0

     negative rho (up, down):  1.229E-03 0.000E+00

     total cpu time spent up to now is       11.2 secs

     total energy              =     -33.73460545 Ry
     Harris-Foulkes estimate   =     -33.73111592 Ry
     estimated scf accuracy    <       0.00101043 Ry

     iteration #  2     ecut=    60.00 Ry     beta=0.70
     Davidson diagonalization with overlap
     ethr =  1.26E-05,  avg # of iterations = 14.0

     negative rho (up, down):  6.110E-04 0.000E+00

     total cpu time spent up to now is       11.4 secs

     total energy              =     -33.73887187 Ry
     Harris-Foulkes estimate   =     -33.73902762 Ry
     estimated scf accuracy    <       0.00046034 Ry

     iteration #  3     ecut=    60.00 Ry     beta=0.70
     Davidson diagonalization with overlap
     ethr =  5.75E-06,  avg # of iterations =  6.0

     negative rho (up, down):  5.382E-05 0.000E+00

     total cpu time spent up to now is       11.5 secs

     total energy              =     -33.73491480 Ry
     Harris-Foulkes estimate   =     -33.73494101 Ry
     estimated scf accuracy    <       0.00006882 Ry

     iteration #  4     ecut=    60.00 Ry     beta=0.70
     Davidson diagonalization with overlap
     ethr =  8.60E-07,  avg # of iterations =  8.0

     negative rho (up, down):  1.553E-06 0.000E+00

     total cpu time spent up to now is       11.6 secs

     total energy              =     -33.73900494 Ry
     Harris-Foulkes estimate   =     -33.73900621 Ry
     estimated scf accuracy    <       0.00000102 Ry

     iteration #  5     ecut=    60.00 Ry     beta=0.70
     Davidson diagonalization with overlap
     ethr =  1.28E-08,  avg # of iterations =  2.0

     total cpu time spent up to now is       11.7 secs

     total energy              =     -33.73900502 Ry
     Harris-Foulkes estimate   =     -33.73900527 Ry
     estimated scf accuracy    <       0.00000003 Ry

     iteration #  6     ecut=    60.00 Ry     beta=0.70
     Davidson diagonalization with overlap
     ethr =  3.70E-10,  avg # of iterations =  2.0

     total cpu time spent up to now is       11.7 secs

     End of self-consistent calculation

          k = 0.0000 0.0000 0.0000 ( 62669 PWs)   bands (ev):

   -24.8321 -12.4474  -9.0383  -6.9418  -1.1018   0.3629   0.6478   1.1131

     the Fermi energy is    -5.0331 ev

!    total energy              =     -33.73900498 Ry
     Harris-Foulkes estimate   =     -33.73900503 Ry
     estimated scf accuracy    <          1.3E-09 Ry

     convergence has been achieved in   6 iterations

     Forces acting on atoms (Ry/au):

     atom    1 type  2   force =    -0.00635801   -0.02442834   -0.03925566
     atom    2 type  1   force =    -0.00336328   -0.03735308    0.02123657
     atom    3 type  1   force =     0.00972129    0.06178142    0.01801909

     Total force =     0.090950     Total SCF correction =     0.000217

     Entering Dynamics:    iteration =     9
                           time      =   0.0044 pico-seconds


     Andersen thermostat:    3 collisions

ATOMIC_POSITIONS (angstrom)
O        0.003287557   0.008972769   0.125002940
H        0.069866897   0.757853087  -0.623448534
H       -0.121947008  -0.899995969  -0.421591045


     kinetic energy (Ekin) =     0.18344969 Ry
     temperature           =  9654.79329325 K 
     Ekin + Etot (const)   =   -33.55555529 Ry
     Message from routine dynamics:
     Total linear momentum <> 0

     Linear momentum :   -0.2328924576   -1.0814136870    0.3822371096

     Writing output data file pwscf.save

     second order wave-functions extrapolation
     Check: negative starting charge=   -0.070965
     second order charge density extrapolation
     Check: negative starting charge=   -0.070752

     negative rho (up, down):  7.008E-03 0.000E+00

     total cpu time spent up to now is       12.3 secs

     per-process dynamical memory:    32.7 Mb

     Self-consistent Calculation

     iteration #  1     ecut=    60.00 Ry     beta=0.70
     Davidson diagonalization with overlap
     c_bands:  1 eigenvalues not converged
     ethr =  1.00E-06,  avg # of iterations = 20.0

     negative rho (up, down):  1.767E-03 0.000E+00

     total cpu time spent up to now is       12.6 secs

     total energy              =     -33.72502414 Ry
     Harris-Foulkes estimate   =     -33.71975930 Ry
     estimated scf accuracy    <       0.00222875 Ry

     iteration #  2     ecut=    60.00 Ry     beta=0.70
     Davidson diagonalization with overlap
     ethr =  2.79E-05,  avg # of iterations =  8.0

     negative rho (up, down):  1.086E-03 0.000E+00

     total cpu time spent up to now is       12.7 secs

     total energy              =     -33.72976108 Ry
     Harris-Foulkes estimate   =     -33.73052839 Ry
     estimated scf accuracy    <       0.00232171 Ry

     iteration #  3     ecut=    60.00 Ry     beta=0.70
     Davidson diagonalization with overlap
     ethr =  2.79E-05,  avg # of iterations =  9.0

     negative rho (up, down):  6.714E-05 0.000E+00

     total cpu time spent up to now is       12.8 secs

     total energy              =     -33.72623559 Ry
     Harris-Foulkes estimate   =     -33.72619588 Ry
     estimated scf accuracy    <       0.00004708 Ry

     iteration #  4     ecut=    60.00 Ry     beta=0.70
     Davidson diagonalization with overlap
     ethr =  5.88E-07,  avg # of iterations =  6.0

     negative rho (up, down):  3.149E-07 0.000E+00

     total cpu time spent up to now is       12.9 secs

     total energy              =     -33.73031886 Ry
     Harris-Foulkes estimate   =     -33.73032187 Ry
     estimated scf accuracy    <       0.00000062 Ry

     iteration #  5     ecut=    60.00 Ry     beta=0.70
     Davidson diagonalization with overlap
     ethr =  7.72E-09,  avg # of iterations =  2.0

     total cpu time spent up to now is       13.0 secs

     total energy              =     -33.73031853 Ry
     Harris-Foulkes estimate   =     -33.73031903 Ry
     estimated scf accuracy    <       0.00000002 Ry

     iteration #  6     ecut=    60.00 Ry     beta=0.70
     Davidson diagonalization with overlap
     ethr =  2.85E-10,  avg # of iterations =  2.0

     total cpu time spent up to now is       13.0 secs

     End of self-consistent calculation

          k = 0.0000 0.0000 0.0000 ( 62669 PWs)   bands (ev):

   -24.5334 -12.1065  -9.0575  -6.8906  -1.2335   0.3299   0.5372   1.1035

     the Fermi energy is    -4.9656 ev

!    total energy              =     -33.73031842 Ry
     Harris-Foulkes estimate   =     -33.73031853 Ry
     estimated scf accuracy    <          1.1E-09 Ry

     convergence has been achieved in   6 iterations

     Forces acting on atoms (Ry/au):

     atom    1 type  2   force =    -0.00450534   -0.01581246   -0.08785159
     atom    2 type  1   force =    -0.00668781   -0.06861585    0.05116252
     atom    3 type  1   force =     0.01119315    0.08442831    0.03668907

     Total force =     0.154784     Total SCF correction =     0.000052

     Entering Dynamics:    iteration =    10
                           time      =   0.0048 pico-seconds


     Andersen thermostat:    3 collisions

ATOMIC_POSITIONS (angstrom)
O        0.003324141   0.017197350   0.125517961
H       -0.029141026   0.668561023  -0.705329748
H       -0.023518640  -0.940994285  -0.347868591


     kinetic energy (Ekin) =     0.70341639 Ry
     temperature           = 37020.17712538 K 
     Ekin + Etot (const)   =   -33.02690203 Ry
     Message from routine dynamics:
     Total linear momentum <> 0

     Linear momentum :    0.2664850423   -0.6954697538    0.4785822701

     Writing output data file pwscf.save

     second order wave-functions extrapolation
     Check: negative starting charge=   -0.070752
     second order charge density extrapolation
     Check: negative starting charge=   -0.070798

     negative rho (up, down):  1.100E-02 0.000E+00

     total cpu time spent up to now is       13.7 secs

     per-process dynamical memory:    32.7 Mb

     Self-consistent Calculation

     iteration #  1     ecut=    60.00 Ry     beta=0.70
     Davidson diagonalization with overlap
     ethr =  1.00E-06,  avg # of iterations = 20.0

     negative rho (up, down):  2.795E-03 0.000E+00

     total cpu time spent up to now is       14.1 secs

     total energy              =     -33.72282925 Ry
     Harris-Foulkes estimate   =     -33.71713958 Ry
     estimated scf accuracy    <       0.00849480 Ry

     iteration #  2     ecut=    60.00 Ry     beta=0.70
     Davidson diagonalization with overlap
     ethr =  1.06E-04,  avg # of iterations =  5.0

     negative rho (up, down):  1.759E-03 0.000E+00

     total cpu time spent up to now is       14.2 secs

     total energy              =     -33.72928175 Ry
     Harris-Foulkes estimate   =     -33.73261900 Ry
     estimated scf accuracy    <       0.00934651 Ry

     iteration #  3     ecut=    60.00 Ry     beta=0.70
     Davidson diagonalization with overlap
     ethr =  1.06E-04,  avg # of iterations =  2.0

     negative rho (up, down):  1.397E-04 0.000E+00

     total cpu time spent up to now is       14.2 secs

     total energy              =     -33.72756678 Ry
     Harris-Foulkes estimate   =     -33.72718427 Ry
     estimated scf accuracy    <       0.00013860 Ry

     iteration #  4     ecut=    60.00 Ry     beta=0.70
     Davidson diagonalization with overlap
     c_bands:  1 eigenvalues not converged
     ethr =  1.73E-06,  avg # of iterations = 20.0

     negative rho (up, down):  2.474E-06 0.000E+00

     total cpu time spent up to now is       14.4 secs

     total energy              =     -33.73166547 Ry
     Harris-Foulkes estimate   =     -33.73166967 Ry
     estimated scf accuracy    <       0.00000290 Ry

     iteration #  5     ecut=    60.00 Ry     beta=0.70
     Davidson diagonalization with overlap
     ethr =  3.62E-08,  avg # of iterations = 15.0

     total cpu time spent up to now is       14.5 secs

     total energy              =     -33.73166561 Ry
     Harris-Foulkes estimate   =     -33.73166605 Ry
     estimated scf accuracy    <       0.00000011 Ry

     iteration #  6     ecut=    60.00 Ry     beta=0.70
     Davidson diagonalization with overlap
     ethr =  1.40E-09,  avg # of iterations =  2.0

     total cpu time spent up to now is       14.6 secs

     End of self-consistent calculation

          k = 0.0000 0.0000 0.0000 ( 62669 PWs)   bands (ev):

   -24.5842 -12.0110  -9.1882  -6.9066  -1.2242   0.3315   0.5443   1.0997

     the Fermi energy is    -4.9811 ev

!    total energy              =     -33.73166553 Ry
     Harris-Foulkes estimate   =     -33.73166564 Ry
     estimated scf accuracy    <          4.7E-09 Ry

     convergence has been achieved in   6 iterations

     Forces acting on atoms (Ry/au):

     atom    1 type  2   force =    -0.00432080   -0.03191783   -0.09424633
     atom    2 type  1   force =     0.00221305   -0.05225428    0.05832889
     atom    3 type  1   force =     0.00210774    0.08417211    0.03591744

     Total force =     0.156323     Total SCF correction =     0.000221

     Entering Dynamics:    iteration =    11
                           time      =   0.0053 pico-seconds


     Andersen thermostat:    3 collisions

ATOMIC_POSITIONS (angstrom)
O        0.006651423   0.023033785   0.119745231
H        0.006199270   0.585424920  -0.680460647
H       -0.111568354  -0.950316556  -0.281288496


     kinetic energy (Ekin) =     0.43741766 Ry
     temperature           = 23020.90132062 K 
     Ekin + Etot (const)   =   -33.29424787 Ry
     Message from routine dynamics:
     Total linear momentum <> 0

     Linear momentum :   -0.8965679670    0.5198835541    2.3085504822

     Writing output data file pwscf.save

     second order wave-functions extrapolation
     Check: negative starting charge=   -0.070798
     second order charge density extrapolation
     Check: negative starting charge=   -0.070973

     negative rho (up, down):  7.751E-03 0.000E+00

     total cpu time spent up to now is       15.2 secs

     per-process dynamical memory:    32.7 Mb

     Self-consistent Calculation

     iteration #  1     ecut=    60.00 Ry     beta=0.70
     Davidson diagonalization with overlap
     c_bands:  1 eigenvalues not converged
     ethr =  1.00E-06,  avg # of iterations = 20.0

     negative rho (up, down):  1.959E-03 0.000E+00

     total cpu time spent up to now is       15.4 secs

     total energy              =     -33.73303248 Ry
     Harris-Foulkes estimate   =     -33.72582303 Ry
     estimated scf accuracy    <       0.00063607 Ry

     iteration #  2     ecut=    60.00 Ry     beta=0.70
     Davidson diagonalization with overlap
     ethr =  7.95E-06,  avg # of iterations = 15.0

     negative rho (up, down):  5.515E-04 0.000E+00

     total cpu time spent up to now is       15.6 secs

     total energy              =     -33.73366236 Ry
     Harris-Foulkes estimate   =     -33.73313140 Ry
     estimated scf accuracy    <       0.00010154 Ry

     iteration #  3     ecut=    60.00 Ry     beta=0.70
     Davidson diagonalization with overlap
     c_bands:  1 eigenvalues not converged
     ethr =  1.27E-06,  avg # of iterations = 20.0

     negative rho (up, down):  5.103E-05 0.000E+00

     total cpu time spent up to now is       15.7 secs

     total energy              =     -33.73368232 Ry
     Harris-Foulkes estimate   =     -33.73370871 Ry
     estimated scf accuracy    <       0.00006279 Ry

     iteration #  4     ecut=    60.00 Ry     beta=0.70
     Davidson diagonalization with overlap
     ethr =  7.85E-07,  avg # of iterations = 13.0

     negative rho (up, down):  5.842E-07 0.000E+00

     total cpu time spent up to now is       15.8 secs

     total energy              =     -33.73777202 Ry
     Harris-Foulkes estimate   =     -33.73777407 Ry
     estimated scf accuracy    <       0.00000136 Ry

     iteration #  5     ecut=    60.00 Ry     beta=0.70
     Davidson diagonalization with overlap
     ethr =  1.69E-08,  avg # of iterations =  2.0

     total cpu time spent up to now is       15.9 secs

     total energy              =     -33.73777199 Ry
     Harris-Foulkes estimate   =     -33.73777238 Ry
     estimated scf accuracy    <       0.00000002 Ry

     iteration #  6     ecut=    60.00 Ry     beta=0.70
     Davidson diagonalization with overlap
     ethr =  2.39E-10,  avg # of iterations =  2.0

     total cpu time spent up to now is       16.0 secs

     End of self-consistent calculation

          k = 0.0000 0.0000 0.0000 ( 62669 PWs)   bands (ev):

   -25.0111 -12.4053  -9.2024  -6.9765  -1.0853   0.3552   0.6883   1.1021

     the Fermi energy is    -5.0861 ev

!    total energy              =     -33.73777196 Ry
     Harris-Foulkes estimate   =     -33.73777200 Ry
     estimated scf accuracy    <          1.0E-09 Ry

     convergence has been achieved in   6 iterations

     Forces acting on atoms (Ry/au):

     atom    1 type  2   force =    -0.00899456   -0.08993638   -0.00692916
     atom    2 type  1   force =    -0.00039905    0.01105900   -0.02182737
     atom    3 type  1   force =     0.00939361    0.07887738    0.02875653

     Total force =     0.126306     Total SCF correction =     0.000100

     Entering Dynamics:    iteration =    12
                           time      =   0.0058 pico-seconds


     Andersen thermostat:    3 collisions

ATOMIC_POSITIONS (angstrom)
O        0.006449494   0.029121155   0.117143793
H       -0.017256128   0.513839722  -0.708665375
H       -0.084914075  -0.975164952  -0.211872870


     kinetic energy (Ekin) =     0.24156241 Ry
     temperature           = 12713.21407436 K 
     Ekin + Etot (const)   =   -33.49620955 Ry
     Message from routine dynamics:
     Total linear momentum <> 0

     Linear momentum :    0.0317185473    1.3508915104   -0.0518709195

     Writing output data file pwscf.save

     second order wave-functions extrapolation
     Check: negative starting charge=   -0.070973
     second order charge density extrapolation
     Check: negative starting charge=   -0.070980

     negative rho (up, down):  5.050E-03 0.000E+00

     total cpu time spent up to now is       16.6 secs

     per-process dynamical memory:    32.7 Mb

     Self-consistent Calculation

     iteration #  1     ecut=    60.00 Ry     beta=0.70
     Davidson diagonalization with overlap
     c_bands:  1 eigenvalues not converged
     ethr =  1.00E-06,  avg # of iterations = 20.0

     negative rho (up, down):  1.279E-03 0.000E+00

     total cpu time spent up to now is       16.8 secs

     total energy              =     -33.73171879 Ry
     Harris-Foulkes estimate   =     -33.72740555 Ry
     estimated scf accuracy    <       0.00020243 Ry

     iteration #  2     ecut=    60.00 Ry     beta=0.70
     Davidson diagonalization with overlap
     ethr =  2.53E-06,  avg # of iterations = 19.0

     negative rho (up, down):  5.044E-04 0.000E+00

     total cpu time spent up to now is       16.9 secs

     total energy              =     -33.73185610 Ry
     Harris-Foulkes estimate   =     -33.73176511 Ry
     estimated scf accuracy    <       0.00005982 Ry

     iteration #  3     ecut=    60.00 Ry     beta=0.70
     Davidson diagonalization with overlap
     c_bands:  1 eigenvalues not converged
     ethr =  7.48E-07,  avg # of iterations = 20.0

     negative rho (up, down):  1.059E-06 0.000E+00

     total cpu time spent up to now is       17.1 secs

     total energy              =     -33.73187264 Ry
     Harris-Foulkes estimate   =     -33.73188068 Ry
     estimated scf accuracy    <       0.00002272 Ry

     iteration #  4     ecut=    60.00 Ry     beta=0.70
     Davidson diagonalization with overlap
     ethr =  2.84E-07,  avg # of iterations =  9.0

     total cpu time spent up to now is       17.2 secs

     total energy              =     -33.73595421 Ry
     Harris-Foulkes estimate   =     -33.73595461 Ry
     estimated scf accuracy    <       0.00000004 Ry

     iteration #  5     ecut=    60.00 Ry     beta=0.70
     Davidson diagonalization with overlap
     ethr =  4.64E-10,  avg # of iterations =  3.0

     total cpu time spent up to now is       17.2 secs

     End of self-consistent calculation

          k = 0.0000 0.0000 0.0000 ( 62669 PWs)   bands (ev):

   -25.1333 -12.4603  -9.2424  -6.9965  -1.0666   0.3553   0.7124   1.1021

     the Fermi energy is    -5.1166 ev

!    total energy              =     -33.73595414 Ry
     Harris-Foulkes estimate   =     -33.73595426 Ry
     estimated scf accuracy    <          6.6E-09 Ry

     convergence has been achieved in   5 iterations

     Forces acting on atoms (Ry/au):

     atom    1 type  2   force =    -0.00570852   -0.11236333    0.02877288
     atom    2 type  1   force =    -0.00162261    0.03070195   -0.05421311
     atom    3 type  1   force =     0.00733113    0.08166138    0.02544023

     Total force =     0.157289     Total SCF correction =     0.000120

     Entering Dynamics:    iteration =    13
                           time      =   0.0063 pico-seconds


     Andersen thermostat:    3 collisions

ATOMIC_POSITIONS (angstrom)
O        0.002776740   0.032320920   0.115520662
H        0.028338729   0.475642026  -0.633469561
H       -0.072326690  -0.987656597  -0.261355713


     kinetic energy (Ekin) =     0.24515373 Ry
     temperature           = 12902.22192658 K 
     Ekin + Etot (const)   =   -33.49080042 Ry
     Message from routine dynamics:
     Total linear momentum <> 0

     Linear momentum :   -0.6886510079   -1.4502087244   -0.4770281364

     Writing output data file pwscf.save

     second order wave-functions extrapolation
     Check: negative starting charge=   -0.070980
     second order charge density extrapolation
     Check: negative starting charge=   -0.071070

     negative rho (up, down):  8.171E-03 0.000E+00

     total cpu time spent up to now is       17.8 secs

     per-process dynamical memory:    32.7 Mb

     Self-consistent Calculation

     iteration #  1     ecut=    60.00 Ry     beta=0.70
     Davidson diagonalization with overlap
     c_bands:  1 eigenvalues not converged
     ethr =  1.00E-06,  avg # of iterations = 20.0

     negative rho (up, down):  2.019E-03 0.000E+00

     total cpu time spent up to now is       18.0 secs

     total energy              =     -33.69546544 Ry
     Harris-Foulkes estimate   =     -33.69092262 Ry
     estimated scf accuracy    <       0.00494893 Ry

     iteration #  2     ecut=    60.00 Ry     beta=0.70
     Davidson diagonalization with overlap
     ethr =  6.19E-05,  avg # of iterations =  5.0

     negative rho (up, down):  1.121E-03 0.000E+00

     total cpu time spent up to now is       18.1 secs

     total energy              =     -33.69664106 Ry
     Harris-Foulkes estimate   =     -33.69782696 Ry
     estimated scf accuracy    <       0.00332696 Ry

     iteration #  3     ecut=    60.00 Ry     beta=0.70
     Davidson diagonalization with overlap
     ethr =  4.16E-05,  avg # of iterations =  9.0

     negative rho (up, down):  1.069E-04 0.000E+00

     total cpu time spent up to now is       18.3 secs

     total energy              =     -33.69748204 Ry
     Harris-Foulkes estimate   =     -33.69747359 Ry
     estimated scf accuracy    <       0.00014261 Ry

     iteration #  4     ecut=    60.00 Ry     beta=0.70
     Davidson diagonalization with overlap
     ethr =  1.78E-06,  avg # of iterations = 14.0

     negative rho (up, down):  4.863E-06 0.000E+00

     total cpu time spent up to now is       18.4 secs

     total energy              =     -33.69750838 Ry
     Harris-Foulkes estimate   =     -33.69751063 Ry
     estimated scf accuracy    <       0.00000114 Ry

     iteration #  5     ecut=    60.00 Ry     beta=0.70
     Davidson diagonalization with overlap
     ethr =  1.42E-08,  avg # of iterations =  2.0

     negative rho (up, down):  2.857E-08 0.000E+00

     total cpu time spent up to now is       18.5 secs

     total energy              =     -33.69750827 Ry
     Harris-Foulkes estimate   =     -33.69750869 Ry
     estimated scf accuracy    <       0.00000006 Ry

     iteration #  6     ecut=    60.00 Ry     beta=0.70
     Davidson diagonalization with overlap
     ethr =  8.02E-10,  avg # of iterations =  2.0

     total cpu time spent up to now is       18.5 secs

     End of self-consistent calculation

          k = 0.0000 0.0000 0.0000 ( 62669 PWs)   bands (ev):

   -25.6614 -12.6316  -9.3666  -7.0651  -1.0849   0.3186   0.7923   1.1035

     the Fermi energy is    -6.7518 ev

!    total energy              =     -33.69750819 Ry
     Harris-Foulkes estimate   =     -33.69750828 Ry
     estimated scf accuracy    <          3.3E-09 Ry

     convergence has been achieved in   6 iterations

     Forces acting on atoms (Ry/au):

     atom    1 type  2   force =    -0.01721003   -0.27132620    0.22386650
     atom    2 type  1   force =     0.00963110    0.16743940   -0.26800900
     atom    3 type  1   force =     0.00757892    0.10388680    0.04414250

     Total force =     0.486607     Total SCF correction =     0.000556

     Entering Dynamics:    iteration =    14
                           time      =   0.0068 pico-seconds


     Andersen thermostat:    3 collisions

ATOMIC_POSITIONS (angstrom)
O       -0.009611665   0.028210892   0.120935026
H        0.134796460   0.516078522  -0.638302843
H        0.017467547  -0.962983741  -0.342294533


     kinetic energy (Ekin) =     0.50904606 Ry
     temperature           = 26790.63980997 K 
     Ekin + Etot (const)   =   -33.18846214 Ry
     Message from routine dynamics:
     Total linear momentum <> 0

     Linear momentum :   -0.2821920580   -0.3174158348   -0.1065794398

     Writing output data file pwscf.save

     second order wave-functions extrapolation
     Check: negative starting charge=   -0.071070
     second order charge density extrapolation
     Check: negative starting charge=   -0.070965

     negative rho (up, down):  1.458E-02 0.000E+00

     total cpu time spent up to now is       19.2 secs

     per-process dynamical memory:    32.7 Mb

     Self-consistent Calculation

     iteration #  1     ecut=    60.00 Ry     beta=0.70
     Davidson diagonalization with overlap
     c_bands:  1 eigenvalues not converged
     ethr =  1.00E-06,  avg # of iterations = 20.0

     negative rho (up, down):  3.706E-03 0.000E+00

     total cpu time spent up to now is       19.4 secs

     total energy              =     -33.71023963 Ry
     Harris-Foulkes estimate   =     -33.70000399 Ry
     estimated scf accuracy    <       0.00699210 Ry

     iteration #  2     ecut=    60.00 Ry     beta=0.70
     Davidson diagonalization with overlap
     ethr =  8.74E-05,  avg # of iterations =  4.0

     negative rho (up, down):  2.215E-03 0.000E+00

     total cpu time spent up to now is       19.5 secs

     total energy              =     -33.71306565 Ry
     Harris-Foulkes estimate   =     -33.71406968 Ry
     estimated scf accuracy    <       0.00564202 Ry

     iteration #  3     ecut=    60.00 Ry     beta=0.70
     Davidson diagonalization with overlap
     ethr =  7.05E-05,  avg # of iterations =  4.0

     negative rho (up, down):  1.718E-04 0.000E+00

     total cpu time spent up to now is       19.6 secs

     total energy              =     -33.71514114 Ry
     Harris-Foulkes estimate   =     -33.71437772 Ry
     estimated scf accuracy    <       0.00016184 Ry

     iteration #  4     ecut=    60.00 Ry     beta=0.70
     Davidson diagonalization with overlap
     c_bands:  1 eigenvalues not converged
     ethr =  2.02E-06,  avg # of iterations = 20.0

     negative rho (up, down):  4.000E-06 0.000E+00

     total cpu time spent up to now is       19.7 secs

     total energy              =     -33.71516893 Ry
     Harris-Foulkes estimate   =     -33.71517145 Ry
     estimated scf accuracy    <       0.00000164 Ry

     iteration #  5     ecut=    60.00 Ry     beta=0.70
     Davidson diagonalization with overlap
     ethr =  2.06E-08,  avg # of iterations = 18.0

     total cpu time spent up to now is       19.9 secs

     total energy              =     -33.71516947 Ry
     Harris-Foulkes estimate   =     -33.71516935 Ry
     estimated scf accuracy    <       0.00000008 Ry

     iteration #  6     ecut=    60.00 Ry     beta=0.70
     Davidson diagonalization with overlap
     ethr =  9.91E-10,  avg # of iterations =  2.0

     total cpu time spent up to now is       19.9 secs

     End of self-consistent calculation

          k = 0.0000 0.0000 0.0000 ( 62669 PWs)   bands (ev):

   -25.3730 -12.2783  -9.4880  -7.0337  -1.1312   0.3127   0.7545   1.0989

     the Fermi energy is    -6.7204 ev

!    total energy              =     -33.71516949 Ry
     Harris-Foulkes estimate   =     -33.71516949 Ry
     estimated scf accuracy    <          4.7E-09 Ry

     convergence has been achieved in   6 iterations

     Forces acting on atoms (Ry/au):

     atom    1 type  2   force =    -0.02127210   -0.20099819    0.07652140
     atom    2 type  1   force =     0.02628532    0.10447150   -0.13485756
     atom    3 type  1   force =    -0.00501322    0.09652670    0.05833616

     Total force =     0.298740     Total SCF correction =     0.000306

     Entering Dynamics:    iteration =    15
                           time      =   0.0073 pico-seconds


     Andersen thermostat:    3 collisions

ATOMIC_POSITIONS (angstrom)
O       -0.009768932   0.019371167   0.125283711
H        0.175529155   0.649319835  -0.639106111
H       -0.020773798  -0.956189810  -0.410381331


     kinetic energy (Ekin) =     0.50450971 Ry
     temperature           = 26551.89623660 K 
     Ekin + Etot (const)   =   -33.21065978 Ry
     Message from routine dynamics:
     Total linear momentum <> 0

     Linear momentum :    1.3831249522    1.5769030051   -1.2247585507

     Writing output data file pwscf.save

     second order wave-functions extrapolation
     Check: negative starting charge=   -0.070965
     second order charge density extrapolation
     Check: negative starting charge=   -0.070798

     negative rho (up, down):  9.779E-03 0.000E+00

     total cpu time spent up to now is       20.5 secs

     per-process dynamical memory:    32.7 Mb

     Self-consistent Calculation

     iteration #  1     ecut=    60.00 Ry     beta=0.70
     Davidson diagonalization with overlap
     c_bands:  1 eigenvalues not converged
     ethr =  1.00E-06,  avg # of iterations = 20.0

     negative rho (up, down):  2.489E-03 0.000E+00

     total cpu time spent up to now is       20.8 secs

     total energy              =     -33.72134590 Ry
     Harris-Foulkes estimate   =     -33.71240051 Ry
     estimated scf accuracy    <       0.00234366 Ry

     iteration #  2     ecut=    60.00 Ry     beta=0.70
     Davidson diagonalization with overlap
     ethr =  2.93E-05,  avg # of iterations = 15.0

     negative rho (up, down):  1.390E-03 0.000E+00

     total cpu time spent up to now is       20.9 secs

     total energy              =     -33.72252704 Ry
     Harris-Foulkes estimate   =     -33.72229497 Ry
     estimated scf accuracy    <       0.00149808 Ry

     iteration #  3     ecut=    60.00 Ry     beta=0.70
     Davidson diagonalization with overlap
     ethr =  1.87E-05,  avg # of iterations =  4.0

     negative rho (up, down):  5.900E-05 0.000E+00

     total cpu time spent up to now is       21.0 secs

     total energy              =     -33.72307672 Ry
     Harris-Foulkes estimate   =     -33.72295505 Ry
     estimated scf accuracy    <       0.00015375 Ry

     iteration #  4     ecut=    60.00 Ry     beta=0.70
     Davidson diagonalization with overlap
     ethr =  1.92E-06,  avg # of iterations = 15.0

     negative rho (up, down):  4.105E-08 0.000E+00

     total cpu time spent up to now is       21.1 secs

     total energy              =     -33.72717975 Ry
     Harris-Foulkes estimate   =     -33.72718195 Ry
     estimated scf accuracy    <       0.00000071 Ry

     iteration #  5     ecut=    60.00 Ry     beta=0.70
     Davidson diagonalization with overlap
     ethr =  8.92E-09,  avg # of iterations =  2.0

     total cpu time spent up to now is       21.2 secs

     total energy              =     -33.72717965 Ry
     Harris-Foulkes estimate   =     -33.72718003 Ry
     estimated scf accuracy    <       0.00000004 Ry

     iteration #  6     ecut=    60.00 Ry     beta=0.70
     Davidson diagonalization with overlap
     ethr =  4.44E-10,  avg # of iterations =  2.0

     total cpu time spent up to now is       21.3 secs

     End of self-consistent calculation

          k = 0.0000 0.0000 0.0000 ( 62669 PWs)   bands (ev):

   -24.6685 -11.9820  -9.2439  -6.9190  -1.2599   0.2919   0.5885   1.0932

     the Fermi energy is    -5.0071 ev

!    total energy              =     -33.72717956 Ry
     Harris-Foulkes estimate   =     -33.72717966 Ry
     estimated scf accuracy    <          9.6E-10 Ry

     convergence has been achieved in   6 iterations

     Forces acting on atoms (Ry/au):

     atom    1 type  2   force =     0.00188086   -0.10128746   -0.07370535
     atom    2 type  1   force =    -0.00343584   -0.01323418    0.01303673
     atom    3 type  1   force =     0.00155498    0.11452165    0.06066862

     Total force =     0.181247     Total SCF correction =     0.000121

     Entering Dynamics:    iteration =    16
                           time      =   0.0077 pico-seconds


     Andersen thermostat:    3 collisions

ATOMIC_POSITIONS (angstrom)
O       -0.003418736   0.010081726   0.114109597
H        0.061798253   0.679818373  -0.545142815
H       -0.007640061  -0.839528879  -0.327328955


     kinetic energy (Ekin) =     0.81266684 Ry
     temperature           = 42769.93103818 K 
     Ekin + Etot (const)   =   -32.91451271 Ry
     Message from routine dynamics:
     Total linear momentum <> 0

     Linear momentum :   -1.6479846186   -0.7040943984    1.1145232277

     Writing output data file pwscf.save

     second order wave-functions extrapolation
     Check: negative starting charge=   -0.070798
     second order charge density extrapolation
     Check: negative starting charge=   -0.071051

     negative rho (up, down):  1.930E-02 0.000E+00

     total cpu time spent up to now is       21.9 secs

     per-process dynamical memory:    32.7 Mb

     Self-consistent Calculation

     iteration #  1     ecut=    60.00 Ry     beta=0.70
     Davidson diagonalization with overlap
     c_bands:  1 eigenvalues not converged
     ethr =  1.00E-06,  avg # of iterations = 20.0

     negative rho (up, down):  4.652E-03 0.000E+00

     total cpu time spent up to now is       22.1 secs

     total energy              =     -33.72228067 Ry
     Harris-Foulkes estimate   =     -33.71644198 Ry
     estimated scf accuracy    <       0.01885345 Ry

     iteration #  2     ecut=    60.00 Ry     beta=0.70
     Davidson diagonalization with overlap
     ethr =  2.36E-04,  avg # of iterations =  3.0

     negative rho (up, down):  2.707E-03 0.000E+00

     total cpu time spent up to now is       22.2 secs

     total energy              =     -33.72839762 Ry
     Harris-Foulkes estimate   =     -33.73382210 Ry
     estimated scf accuracy    <       0.01571413 Ry

     iteration #  3     ecut=    60.00 Ry     beta=0.70
     Davidson diagonalization with overlap
     ethr =  1.96E-04,  avg # of iterations =  3.0

     negative rho (up, down):  1.223E-04 0.000E+00

     total cpu time spent up to now is       22.3 secs

     total energy              =     -33.73309584 Ry
     Harris-Foulkes estimate   =     -33.73181971 Ry
     estimated scf accuracy    <       0.00020023 Ry

     iteration #  4     ecut=    60.00 Ry     beta=0.70
     Davidson diagonalization with overlap
     c_bands:  1 eigenvalues not converged
     ethr =  2.50E-06,  avg # of iterations = 20.0

     negative rho (up, down):  2.385E-05 0.000E+00

     total cpu time spent up to now is       22.5 secs

     total energy              =     -33.73315409 Ry
     Harris-Foulkes estimate   =     -33.73315671 Ry
     estimated scf accuracy    <       0.00000394 Ry

     iteration #  5     ecut=    60.00 Ry     beta=0.70
     Davidson diagonalization with overlap
     ethr =  4.93E-08,  avg # of iterations =  9.0

     negative rho (up, down):  4.172E-08 0.000E+00

     total cpu time spent up to now is       22.6 secs

     total energy              =     -33.73315329 Ry
     Harris-Foulkes estimate   =     -33.73315468 Ry
     estimated scf accuracy    <       0.00000028 Ry

     iteration #  6     ecut=    60.00 Ry     beta=0.70
     Davidson diagonalization with overlap
     ethr =  3.53E-09,  avg # of iterations =  2.0

     total cpu time spent up to now is       22.6 secs

     End of self-consistent calculation

          k = 0.0000 0.0000 0.0000 ( 62669 PWs)   bands (ev):

   -25.6248 -13.2906  -9.0396  -7.0808  -0.8563   0.4432   0.8157   1.1111

     the Fermi energy is    -6.7675 ev

!    total energy              =     -33.73315317 Ry
     Harris-Foulkes estimate   =     -33.73315333 Ry
     estimated scf accuracy    <          8.0E-09 Ry

     convergence has been achieved in   6 iterations

     Forces acting on atoms (Ry/au):

     atom    1 type  2   force =    -0.00811497   -0.00917417    0.10494207
     atom    2 type  1   force =     0.00692973    0.05300001   -0.06967288
     atom    3 type  1   force =     0.00118525   -0.04382584   -0.03526919

     Total force =     0.148459     Total SCF correction =     0.000637

     Entering Dynamics:    iteration =    17
                           time      =   0.0082 pico-seconds


     Andersen thermostat:    3 collisions

ATOMIC_POSITIONS (angstrom)
O        0.001895945   0.017879055   0.112898263
H        0.048988675   0.578873463  -0.558572576
H       -0.079023445  -0.862106020  -0.294709753


     kinetic energy (Ekin) =     0.31895513 Ry
     temperature           = 16786.32423022 K 
     Ekin + Etot (const)   =   -33.41419804 Ry
     Message from routine dynamics:
     Total linear momentum <> 0

     Linear momentum :    0.4714909804   -0.5113093056    0.3897549934

     Writing output data file pwscf.save

     second order wave-functions extrapolation
     Check: negative starting charge=   -0.071051
     second order charge density extrapolation
     Check: negative starting charge=   -0.071260

     negative rho (up, down):  8.294E-03 0.000E+00

     total cpu time spent up to now is       23.2 secs

     per-process dynamical memory:    32.7 Mb

     Self-consistent Calculation

     iteration #  1     ecut=    60.00 Ry     beta=0.70
     Davidson diagonalization with overlap
     c_bands:  1 eigenvalues not converged
     ethr =  1.00E-06,  avg # of iterations = 20.0

     negative rho (up, down):  2.095E-03 0.000E+00

     total cpu time spent up to now is       23.4 secs

     total energy              =     -33.71159525 Ry
     Harris-Foulkes estimate   =     -33.70414594 Ry
     estimated scf accuracy    <       0.00145269 Ry

     iteration #  2     ecut=    60.00 Ry     beta=0.70
     Davidson diagonalization with overlap
     ethr =  1.82E-05,  avg # of iterations =  5.0

     negative rho (up, down):  1.026E-03 0.000E+00

     total cpu time spent up to now is       23.5 secs

     total energy              =     -33.71241294 Ry
     Harris-Foulkes estimate   =     -33.71208561 Ry
     estimated scf accuracy    <       0.00061007 Ry

     iteration #  3     ecut=    60.00 Ry     beta=0.70
     Davidson diagonalization with overlap
     ethr =  7.63E-06,  avg # of iterations = 18.0

     negative rho (up, down):  3.233E-05 0.000E+00

     total cpu time spent up to now is       23.7 secs

     total energy              =     -33.71261477 Ry
     Harris-Foulkes estimate   =     -33.71258760 Ry
     estimated scf accuracy    <       0.00006480 Ry

     iteration #  4     ecut=    60.00 Ry     beta=0.70
     Davidson diagonalization with overlap
     ethr =  8.10E-07,  avg # of iterations =  7.0

     negative rho (up, down):  1.092E-07 0.000E+00

     total cpu time spent up to now is       23.8 secs

     total energy              =     -33.71262696 Ry
     Harris-Foulkes estimate   =     -33.71262729 Ry
     estimated scf accuracy    <       0.00000046 Ry

     iteration #  5     ecut=    60.00 Ry     beta=0.70
     Davidson diagonalization with overlap
     ethr =  5.75E-09,  avg # of iterations =  2.0

     total cpu time spent up to now is       23.9 secs

     total energy              =     -33.71262714 Ry
     Harris-Foulkes estimate   =     -33.71262715 Ry
     estimated scf accuracy    <       0.00000002 Ry

     iteration #  6     ecut=    60.00 Ry     beta=0.70
     Davidson diagonalization with overlap
     ethr =  2.72E-10,  avg # of iterations =  2.0

     total cpu time spent up to now is       24.0 secs

     End of self-consistent calculation

          k = 0.0000 0.0000 0.0000 ( 62669 PWs)   bands (ev):

   -26.0227 -13.4027  -9.2198  -7.1459  -0.8199   0.4483   0.8574   1.1142

     the Fermi energy is    -6.8326 ev

!    total energy              =     -33.71262710 Ry
     Harris-Foulkes estimate   =     -33.71262715 Ry
     estimated scf accuracy    <          1.5E-09 Ry

     convergence has been achieved in   6 iterations

     Forces acting on atoms (Ry/au):

     atom    1 type  2   force =    -0.01332628   -0.16040838    0.23091014
     atom    2 type  1   force =     0.01542316    0.18370296   -0.22008829
     atom    3 type  1   force =    -0.00209688   -0.02329458   -0.01082185

     Total force =     0.402884     Total SCF correction =     0.000042

     Entering Dynamics:    iteration =    18
                           time      =   0.0087 pico-seconds


     Andersen thermostat:    3 collisions

ATOMIC_POSITIONS (angstrom)
O       -0.002185043   0.019420541   0.108112189
H        0.030304249   0.578771705  -0.513802431
H        0.004310293  -0.886423839  -0.263660894


     kinetic energy (Ekin) =     0.21447972 Ry
     temperature           = 11287.87658920 K 
     Ekin + Etot (const)   =   -33.49814738 Ry
     Message from routine dynamics:
     Total linear momentum <> 0

     Linear momentum :    0.1521121326   -0.6439383942   -0.8035707548

     Writing output data file pwscf.save

     second order wave-functions extrapolation
     Check: negative starting charge=   -0.071260
     second order charge density extrapolation
     Check: negative starting charge=   -0.071370

     negative rho (up, down):  8.403E-03 0.000E+00

     total cpu time spent up to now is       24.6 secs

     per-process dynamical memory:    32.7 Mb

     Self-consistent Calculation

     iteration #  1     ecut=    60.00 Ry     beta=0.70
     Davidson diagonalization with overlap
     c_bands:  1 eigenvalues not converged
     ethr =  1.00E-06,  avg # of iterations = 20.0

     negative rho (up, down):  2.141E-03 0.000E+00

     total cpu time spent up to now is       24.9 secs

     total energy              =     -33.68354816 Ry
     Harris-Foulkes estimate   =     -33.67684791 Ry
     estimated scf accuracy    <       0.00228247 Ry

     iteration #  2     ecut=    60.00 Ry     beta=0.70
     Davidson diagonalization with overlap
     ethr =  2.85E-05,  avg # of iterations =  5.0

     negative rho (up, down):  1.040E-03 0.000E+00

     total cpu time spent up to now is       25.0 secs

[...]
     estimated scf accuracy    <          3.0E-09 Ry

     convergence has been achieved in   6 iterations

     Forces acting on atoms (Ry/au):

     atom    1 type  2   force =     0.01000800    0.01586541   -0.06698374
     atom    2 type  1   force =     0.06111889   -0.04103391    0.01267318
     atom    3 type  1   force =    -0.07112690    0.02516850    0.05431056

     Total force =     0.138061     Total SCF correction =     0.000249

     Entering Dynamics:    iteration =   996
                           time      =   0.4818 pico-seconds


     Andersen thermostat:    3 collisions

ATOMIC_POSITIONS (angstrom)
O        0.033181373  -0.044107771   0.129324199
H        0.290721539   0.104143270  -0.948841377
H       -0.816367046   0.594593703  -0.164653793


     kinetic energy (Ekin) =     0.52741802 Ry
     temperature           = 27757.53985307 K 
     Ekin + Etot (const)   =   -33.18944143 Ry
     Message from routine dynamics:
     Total linear momentum <> 0

     Linear momentum :    1.2005645776    1.5941997308   -0.6071663259

     Writing output data file pwscf.save

     second order wave-functions extrapolation
     Check: negative starting charge=   -0.071592
     second order charge density extrapolation
     Check: negative starting charge=   -0.070894

     negative rho (up, down):  1.362E-02 0.000E+00

     total cpu time spent up to now is     1418.8 secs

     per-process dynamical memory:    32.7 Mb

     Self-consistent Calculation

     iteration #  1     ecut=    60.00 Ry     beta=0.70
     Davidson diagonalization with overlap
     c_bands:  1 eigenvalues not converged
     ethr =  1.00E-06,  avg # of iterations = 20.0

     negative rho (up, down):  3.490E-03 0.000E+00

     total cpu time spent up to now is     1419.0 secs

     total energy              =     -33.68215461 Ry
     Harris-Foulkes estimate   =     -33.68317158 Ry
     estimated scf accuracy    <       0.02087045 Ry

     iteration #  2     ecut=    60.00 Ry     beta=0.70
     Davidson diagonalization with overlap
     ethr =  2.61E-04,  avg # of iterations =  4.0

     negative rho (up, down):  2.336E-03 0.000E+00

     total cpu time spent up to now is     1419.1 secs

     total energy              =     -33.69075715 Ry
     Harris-Foulkes estimate   =     -33.70387815 Ry
     estimated scf accuracy    <       0.03285141 Ry

     iteration #  3     ecut=    60.00 Ry     beta=0.70
     Davidson diagonalization with overlap
     ethr =  2.61E-04,  avg # of iterations =  2.0

     negative rho (up, down):  3.544E-04 0.000E+00

     total cpu time spent up to now is     1419.2 secs

     total energy              =     -33.69385291 Ry
     Harris-Foulkes estimate   =     -33.69293712 Ry
     estimated scf accuracy    <       0.00015098 Ry

     iteration #  4     ecut=    60.00 Ry     beta=0.70
     Davidson diagonalization with overlap
     c_bands:  1 eigenvalues not converged
     ethr =  1.89E-06,  avg # of iterations = 20.0

     negative rho (up, down):  1.050E-05 0.000E+00

     total cpu time spent up to now is     1419.4 secs

     total energy              =     -33.69795460 Ry
     Harris-Foulkes estimate   =     -33.69796311 Ry
     estimated scf accuracy    <       0.00000523 Ry

     iteration #  5     ecut=    60.00 Ry     beta=0.70
     Davidson diagonalization with overlap
     c_bands:  1 eigenvalues not converged
     ethr =  6.54E-08,  avg # of iterations = 20.0

     total cpu time spent up to now is     1419.5 secs

     total energy              =     -33.69795455 Ry
     Harris-Foulkes estimate   =     -33.69795591 Ry
     estimated scf accuracy    <       0.00000030 Ry

     iteration #  6     ecut=    60.00 Ry     beta=0.70
     Davidson diagonalization with overlap
     ethr =  3.77E-09,  avg # of iterations =  2.0

     total cpu time spent up to now is     1419.5 secs

     End of self-consistent calculation

          k = 0.0000 0.0000 0.0000 ( 62669 PWs)   bands (ev):

   -24.4843 -10.6960 -10.2085  -6.9428  -1.4997   0.2613   0.3523   1.0750

     the Fermi energy is    -4.9747 ev

!    total energy              =     -33.69795461 Ry
     Harris-Foulkes estimate   =     -33.69795462 Ry
     estimated scf accuracy    <          5.5E-09 Ry

     convergence has been achieved in   6 iterations

     Forces acting on atoms (Ry/au):

     atom    1 type  2   force =    -0.07303591    0.10231498   -0.18608116
     atom    2 type  1   force =     0.01324251   -0.04214192    0.11400033
     atom    3 type  1   force =     0.05979341   -0.06017306    0.07208084

     Total force =     0.278869     Total SCF correction =     0.000269

     Entering Dynamics:    iteration =   997
                           time      =   0.4823 pico-seconds


     Andersen thermostat:    3 collisions

ATOMIC_POSITIONS (angstrom)
O        0.031268413  -0.056755453   0.119455930
H        0.241075270   0.116392069  -0.962732889
H       -0.736416467   0.782704216   0.005566737


     kinetic energy (Ekin) =     1.28746918 Ry
     temperature           = 67758.35451174 K 
     Ekin + Etot (const)   =   -32.41048543 Ry
     Message from routine dynamics:
     Total linear momentum <> 0

     Linear momentum :   -1.0433214673   -0.0506665355    0.1133198909

     Writing output data file pwscf.save

     second order wave-functions extrapolation
     Check: negative starting charge=   -0.070894
     second order charge density extrapolation
     Check: negative starting charge=   -0.070764

     negative rho (up, down):  2.135E-02 0.000E+00

     total cpu time spent up to now is     1420.1 secs

     per-process dynamical memory:    32.7 Mb

     Self-consistent Calculation

     iteration #  1     ecut=    60.00 Ry     beta=0.70
     Davidson diagonalization with overlap
     c_bands:  2 eigenvalues not converged
     ethr =  1.00E-06,  avg # of iterations = 20.0

     negative rho (up, down):  5.306E-03 0.000E+00

     total cpu time spent up to now is     1420.4 secs

     total energy              =     -33.68507497 Ry
     Harris-Foulkes estimate   =     -33.66782632 Ry
     estimated scf accuracy    <       0.00657914 Ry

     iteration #  2     ecut=    60.00 Ry     beta=0.70
     Davidson diagonalization with overlap
     ethr =  8.22E-05,  avg # of iterations =  5.0

     negative rho (up, down):  3.260E-03 0.000E+00

     total cpu time spent up to now is     1420.7 secs

     total energy              =     -33.68800734 Ry
     Harris-Foulkes estimate   =     -33.68843901 Ry
     estimated scf accuracy    <       0.00666620 Ry

     iteration #  3     ecut=    60.00 Ry     beta=0.70
     Davidson diagonalization with overlap
     ethr =  8.22E-05,  avg # of iterations =  4.0

     negative rho (up, down):  1.536E-04 0.000E+00

     total cpu time spent up to now is     1420.8 secs

     total energy              =     -33.69152970 Ry
     Harris-Foulkes estimate   =     -33.68965156 Ry
     estimated scf accuracy    <       0.00040451 Ry

     iteration #  4     ecut=    60.00 Ry     beta=0.70
     Davidson diagonalization with overlap
     ethr =  5.06E-06,  avg # of iterations = 17.0

     negative rho (up, down):  2.567E-06 0.000E+00

     total cpu time spent up to now is     1420.9 secs

     total energy              =     -33.69568130 Ry
     Harris-Foulkes estimate   =     -33.69568393 Ry
     estimated scf accuracy    <       0.00000233 Ry

     iteration #  5     ecut=    60.00 Ry     beta=0.70
     Davidson diagonalization with overlap
     ethr =  2.91E-08,  avg # of iterations =  2.0

     total cpu time spent up to now is     1421.0 secs

     total energy              =     -33.69568123 Ry
     Harris-Foulkes estimate   =     -33.69568211 Ry
     estimated scf accuracy    <       0.00000014 Ry

     iteration #  6     ecut=    60.00 Ry     beta=0.70
     Davidson diagonalization with overlap
     ethr =  1.74E-09,  avg # of iterations =  2.0

     total cpu time spent up to now is     1421.0 secs

     End of self-consistent calculation

          k = 0.0000 0.0000 0.0000 ( 62669 PWs)   bands (ev):

   -24.2682 -10.7927  -9.9489  -6.8971  -1.5480   0.2123   0.2764   1.0769

     the Fermi energy is    -4.9192 ev

!    total energy              =     -33.69568088 Ry
     Harris-Foulkes estimate   =     -33.69568126 Ry
     estimated scf accuracy    <          5.0E-09 Ry

     convergence has been achieved in   6 iterations

     Forces acting on atoms (Ry/au):

     atom    1 type  2   force =    -0.08451373    0.14574035   -0.15876492
     atom    2 type  1   force =     0.00133538   -0.04262515    0.11344814
     atom    3 type  1   force =     0.08317835   -0.10311520    0.04531678

     Total force =     0.296451     Total SCF correction =     0.000233

     Entering Dynamics:    iteration =   998
                           time      =   0.4828 pico-seconds


     Andersen thermostat:    3 collisions

ATOMIC_POSITIONS (angstrom)
O        0.039105877  -0.054114510   0.122050863
H        0.215719970   0.019206231  -0.902128786
H       -0.835219016   0.838053327  -0.096145224


     kinetic energy (Ekin) =     0.65206876 Ry
     temperature           = 34317.79705774 K 
     Ekin + Etot (const)   =   -33.04361212 Ry
     Message from routine dynamics:
     Total linear momentum <> 0

     Linear momentum :   -0.1837427550    1.1682068110    0.1063100040

     Writing output data file pwscf.save

     second order wave-functions extrapolation
     Check: negative starting charge=   -0.070764
     second order charge density extrapolation
     Check: negative starting charge=   -0.070849

     negative rho (up, down):  8.015E-03 0.000E+00

     total cpu time spent up to now is     1421.6 secs

     per-process dynamical memory:    32.7 Mb

     Self-consistent Calculation

     iteration #  1     ecut=    60.00 Ry     beta=0.70
     Davidson diagonalization with overlap
     ethr =  1.00E-06,  avg # of iterations = 19.0

     negative rho (up, down):  1.924E-03 0.000E+00

     total cpu time spent up to now is     1421.8 secs

     total energy              =     -33.66064474 Ry
     Harris-Foulkes estimate   =     -33.65467452 Ry
     estimated scf accuracy    <       0.00435695 Ry

     iteration #  2     ecut=    60.00 Ry     beta=0.70
     Davidson diagonalization with overlap
     ethr =  5.45E-05,  avg # of iterations =  5.0

     negative rho (up, down):  1.121E-03 0.000E+00

     total cpu time spent up to now is     1421.9 secs

     total energy              =     -33.66111263 Ry
     Harris-Foulkes estimate   =     -33.66241956 Ry
     estimated scf accuracy    <       0.00379798 Ry

     iteration #  3     ecut=    60.00 Ry     beta=0.70
     Davidson diagonalization with overlap
     ethr =  4.75E-05,  avg # of iterations =  2.0

     negative rho (up, down):  7.406E-05 0.000E+00

     total cpu time spent up to now is     1422.0 secs

     total energy              =     -33.66619857 Ry
     Harris-Foulkes estimate   =     -33.66627584 Ry
     estimated scf accuracy    <       0.00046506 Ry

     iteration #  4     ecut=    60.00 Ry     beta=0.70
     Davidson diagonalization with overlap
     ethr =  5.81E-06,  avg # of iterations = 10.0

     negative rho (up, down):  2.522E-06 0.000E+00

     total cpu time spent up to now is     1422.1 secs

     total energy              =     -33.66627711 Ry
     Harris-Foulkes estimate   =     -33.66627698 Ry
     estimated scf accuracy    <       0.00000162 Ry

     iteration #  5     ecut=    60.00 Ry     beta=0.70
     Davidson diagonalization with overlap
     ethr =  2.03E-08,  avg # of iterations = 11.0

     negative rho (up, down):  3.928E-08 0.000E+00

     total cpu time spent up to now is     1422.3 secs

     total energy              =     -33.66627773 Ry
     Harris-Foulkes estimate   =     -33.66627782 Ry
     estimated scf accuracy    <       0.00000017 Ry

     iteration #  6     ecut=    60.00 Ry     beta=0.70
     Davidson diagonalization with overlap
     ethr =  2.16E-09,  avg # of iterations =  2.0

     total cpu time spent up to now is     1422.3 secs

     End of self-consistent calculation

          k = 0.0000 0.0000 0.0000 ( 62669 PWs)   bands (ev):

   -24.2636 -10.6914  -9.8687  -6.8889  -1.9747  -0.0103   0.4146   1.0724

     the Fermi energy is    -4.9214 ev

!    total energy              =     -33.66627776 Ry
     Harris-Foulkes estimate   =     -33.66627776 Ry
     estimated scf accuracy    <          8.5E-09 Ry

     convergence has been achieved in   6 iterations

     Forces acting on atoms (Ry/au):

     atom    1 type  2   force =    -0.14323130    0.16400923   -0.11051726
     atom    2 type  1   force =     0.01681877   -0.02800010    0.04950877
     atom    3 type  1   force =     0.12641253   -0.13600913    0.06100848

     Total force =     0.318350     Total SCF correction =     0.000462

     Entering Dynamics:    iteration =   999
                           time      =   0.4833 pico-seconds


     Andersen thermostat:    3 collisions

ATOMIC_POSITIONS (angstrom)
O        0.032667826  -0.057643336   0.123002753
H        0.216629478   0.034685038  -0.875655872
H       -0.734139586   0.878476714  -0.137697580


     kinetic energy (Ekin) =     0.25213199 Ry
     temperature           = 13269.48195408 K 
     Ekin + Etot (const)   =   -33.41414577 Ry
     Message from routine dynamics:
     Total linear momentum <> 0

     Linear momentum :   -0.4003920622   -0.2958937216   -0.3047067068

     Writing output data file pwscf.save

     second order wave-functions extrapolation
     Check: negative starting charge=   -0.070849
     second order charge density extrapolation
     Check: negative starting charge=   -0.071107

     negative rho (up, down):  7.812E-03 0.000E+00

     total cpu time spent up to now is     1423.0 secs

     per-process dynamical memory:    32.7 Mb

     Self-consistent Calculation

     iteration #  1     ecut=    60.00 Ry     beta=0.70
     Davidson diagonalization with overlap
     ethr =  1.00E-06,  avg # of iterations = 20.0

     negative rho (up, down):  1.950E-03 0.000E+00

     total cpu time spent up to now is     1423.2 secs

     total energy              =     -33.66815079 Ry
     Harris-Foulkes estimate   =     -33.66147523 Ry
     estimated scf accuracy    <       0.00133395 Ry

     iteration #  2     ecut=    60.00 Ry     beta=0.70
     Davidson diagonalization with overlap
     ethr =  1.67E-05,  avg # of iterations =  6.0

     negative rho (up, down):  1.204E-03 0.000E+00

     total cpu time spent up to now is     1429.7 secs

     total energy              =     -33.66869626 Ry
     Harris-Foulkes estimate   =     -33.66890302 Ry
     estimated scf accuracy    <       0.00147779 Ry

     iteration #  3     ecut=    60.00 Ry     beta=0.70
     Davidson diagonalization with overlap
     ethr =  1.67E-05,  avg # of iterations =  5.0

     negative rho (up, down):  8.866E-05 0.000E+00

     total cpu time spent up to now is     1429.8 secs

     total energy              =     -33.67320287 Ry
     Harris-Foulkes estimate   =     -33.67313020 Ry
     estimated scf accuracy    <       0.00007808 Ry

     iteration #  4     ecut=    60.00 Ry     beta=0.70
     Davidson diagonalization with overlap
     ethr =  9.76E-07,  avg # of iterations = 16.0

     negative rho (up, down):  7.132E-07 0.000E+00

     total cpu time spent up to now is     1430.0 secs

     total energy              =     -33.67321523 Ry
     Harris-Foulkes estimate   =     -33.67321717 Ry
     estimated scf accuracy    <       0.00000084 Ry

     iteration #  5     ecut=    60.00 Ry     beta=0.70
     Davidson diagonalization with overlap
     ethr =  1.05E-08,  avg # of iterations =  2.0

     total cpu time spent up to now is     1430.1 secs

     total energy              =     -33.67321520 Ry
     Harris-Foulkes estimate   =     -33.67321551 Ry
     estimated scf accuracy    <       0.00000005 Ry

     iteration #  6     ecut=    60.00 Ry     beta=0.70
     Davidson diagonalization with overlap
     ethr =  6.66E-10,  avg # of iterations =  2.0

     total cpu time spent up to now is     1430.2 secs

     End of self-consistent calculation

          k = 0.0000 0.0000 0.0000 ( 62669 PWs)   bands (ev):

   -24.5125 -10.6905 -10.0819  -6.9375  -1.8524   0.0682   0.4781   1.0742

     the Fermi energy is    -4.9823 ev

!    total energy              =     -33.67321508 Ry
     Harris-Foulkes estimate   =     -33.67321522 Ry
     estimated scf accuracy    <          2.5E-09 Ry

     convergence has been achieved in   6 iterations

     Forces acting on atoms (Ry/au):

     atom    1 type  2   force =    -0.12844192    0.17347505   -0.09668825
     atom    2 type  1   force =     0.02949970   -0.03933108    0.01966058
     atom    3 type  1   force =     0.09894222   -0.13414397    0.07702767

     Total force =     0.304073     Total SCF correction =     0.000160

     Entering Dynamics:    iteration =  1000
                           time      =   0.4838 pico-seconds


     Andersen thermostat:    3 collisions

ATOMIC_POSITIONS (angstrom)
O        0.029317389  -0.058654798   0.117790384
H        0.256649707   0.138000198  -0.867455363
H       -0.721083595   0.791184726  -0.063325906


     kinetic energy (Ekin) =     0.53139761 Ry
     temperature           = 27966.98245445 K 
     Ekin + Etot (const)   =   -33.14181747 Ry
     Message from routine dynamics:
     Total linear momentum <> 0

     Linear momentum :   -1.0314488347   -2.8884823512    0.0556111558

     The maximum number of steps has been reached.

     End of molecular dynamics calculation

     diffusion coefficients :
     atom     1   D =       0.00000015 cm^2/s
     atom     2   D =       0.00002099 cm^2/s
     atom     3   D =       0.00010705 cm^2/s

     < D > =       0.00004273 cm^2/s

     Writing output data file pwscf.save
 
     init_run     :      0.27s CPU      0.31s WALL (       1 calls)
     electrons    :    698.42s CPU    868.81s WALL (    1000 calls)
     update_pot   :    286.46s CPU    384.94s WALL (     999 calls)
     forces       :     56.89s CPU     61.66s WALL (    1000 calls)

     Called by init_run:
     wfcinit      :      0.02s CPU      0.04s WALL (       1 calls)
     potinit      :      0.05s CPU      0.06s WALL (       1 calls)

     Called by electrons:
     c_bands      :    359.11s CPU    369.14s WALL (    6190 calls)
     sum_band     :     50.60s CPU     53.35s WALL (    6190 calls)
     v_of_rho     :    150.79s CPU    155.91s WALL (    7190 calls)
     mix_rho      :     87.17s CPU    143.76s WALL (    6190 calls)

     Called by c_bands:
     init_us_2    :      1.92s CPU      2.20s WALL (   12381 calls)
     cegterg      :    356.36s CPU    364.36s WALL (    6190 calls)

     Called by sum_band:

     Called by *egterg:
     h_psi        :    289.85s CPU    296.02s WALL (   58533 calls)
     g_psi        :      3.33s CPU      3.39s WALL (   52342 calls)
     cdiaghg      :     13.61s CPU     14.08s WALL (   57533 calls)

     Called by h_psi:
     h_psi:pot    :    286.96s CPU    293.06s WALL (   58533 calls)
     h_psi:calbec :      5.90s CPU      6.68s WALL (   58533 calls)
     vloc_psi     :    279.89s CPU    285.20s WALL (   58533 calls)
     add_vuspsi   :      0.88s CPU      0.91s WALL (   58533 calls)

     General routines
     calbec       :     25.38s CPU     32.32s WALL (   63531 calls)
     fft          :     98.28s CPU    103.47s WALL (   81089 calls)
     fftw         :    277.62s CPU    284.49s WALL (  482546 calls)
     davcio       :      7.99s CPU     53.18s WALL (   45737 calls)
 
     Parallel routines
     fft_scatter  :    137.54s CPU    146.92s WALL (  563635 calls)
 
     PWSCF        : 18m 6.29s CPU    23m50.58s WALL

 
   This run was terminated on:  19:35: 6  20Apr2018            

=------------------------------------------------------------------------------=
   JOB DONE.
=------------------------------------------------------------------------------=
