
     Program PWSCF v.6.0 (svn rev. 13079) starts on 19Apr2018 at 20:59:17 

     This program is part of the open-source Quantum ESPRESSO suite
     for quantum simulation of materials; please cite
         "P. Giannozzi et al., J. Phys.:Condens. Matter 21 395502 (2009);
          URL http://www.quantum-espresso.org", 
     in publications or presentations arising from this work. More details at
     http://www.quantum-espresso.org/quote

     Parallel version (MPI), running on    28 processors
     R & G space division:  proc/nbgrp/npool/nimage =      28
     Reading input from ../H2O-8000.in

     Current dimensions of program PWSCF are:
     Max number of different atomic species (ntypx) = 10
     Max number of k-points (npk) =  40000
     Max angular momentum in pseudopotentials (lmaxx) =  3

     Subspace diagonalization in iterative solution of the eigenvalue problem:
     a serial algorithm will be used

 
     Parallelization info
     --------------------
     sticks:   dense  smooth     PW     G-vecs:    dense   smooth      PW
     Min         273     273     67                17945    17945    2235
     Max         274     274     68                17950    17950    2240
     Sum        7645    7645   1901               502479   502479   62669
 


     bravais-lattice index     =            1
     lattice parameter (alat)  =      20.0000  a.u.
     unit-cell volume          =    8000.0000 (a.u.)^3
     number of atoms/cell      =            3
     number of atomic types    =            2
     number of electrons       =         8.00
     number of Kohn-Sham states=            8
     kinetic-energy cutoff     =      60.0000  Ry
     charge density cutoff     =     240.0000  Ry
     convergence threshold     =      1.0E-08
     mixing beta               =       0.7000
     number of iterations used =            8  plain     mixing
     Exchange-correlation      = BLYP ( 1  3  1  3 0 0)
     nstep                     =         1000


     celldm(1)=  20.000000  celldm(2)=   0.000000  celldm(3)=   0.000000
     celldm(4)=   0.000000  celldm(5)=   0.000000  celldm(6)=   0.000000

     crystal axes: (cart. coord. in units of alat)
               a(1) = (   1.000000   0.000000   0.000000 )  
               a(2) = (   0.000000   1.000000   0.000000 )  
               a(3) = (   0.000000   0.000000   1.000000 )  

     reciprocal axes: (cart. coord. in units 2 pi/alat)
               b(1) = (  1.000000  0.000000  0.000000 )  
               b(2) = (  0.000000  1.000000  0.000000 )  
               b(3) = (  0.000000  0.000000  1.000000 )  


     PseudoPot. # 1 for  H read from file:
     ./H.blyp-hgh.UPF
     MD5 check sum: c576e69559cde411e611be972c763230
     Pseudo is Norm-conserving, Zval =  1.0
     Generated in analytical, separable form
     Using radial grid of  929 points,  0 beta functions with: 

     PseudoPot. # 2 for  O read from file:
     ./O.blyp-hgh.UPF
     MD5 check sum: d0b7156309aa9befef28faac7bc56342
     Pseudo is Norm-conserving, Zval =  6.0
     Generated in analytical, separable form
     Using radial grid of 1095 points,  1 beta functions with: 
                l(1) =   0

     atomic species   valence    mass     pseudopotential
        H              1.00     1.01000      H( 1.00)
        O              6.00    16.00000      O( 1.00)

     No symmetry found



   Cartesian axes

     site n.     atom                  positions (alat units)
         1           O   tau(   1) = (   0.0000000   0.0000000   0.0112686  )
         2           H   tau(   2) = (   0.0000000   0.0721156  -0.0450744  )
         3           H   tau(   3) = (   0.0000000  -0.0721156  -0.0450744  )

     number of k points=     1  Marzari-Vanderbilt smearing, width (Ry)=  0.0250
                       cart. coord. in units 2pi/alat
        k(    1) = (   0.0000000   0.0000000   0.0000000), wk =   2.0000000

     Dense  grid:   502479 G-vectors     FFT dimensions: ( 100, 100, 100)

     Estimated max dynamical RAM per process >      17.25Mb

     Estimated total allocated dynamical RAM >     483.03Mb

     Initial potential from superposition of free atoms
     Check: negative starting charge=   -0.071145

     starting charge    7.99998, renormalised to    8.00000

     negative rho (up, down):  7.115E-02 0.000E+00
     Starting wfc are    6 randomized atomic wfcs +    2 random wfc

     total cpu time spent up to now is        0.4 secs

     per-process dynamical memory:    30.5 Mb

     Self-consistent Calculation

     iteration #  1     ecut=    60.00 Ry     beta=0.70
     Davidson diagonalization with overlap
     ethr =  1.00E-02,  avg # of iterations =  8.0

     negative rho (up, down):  2.059E-02 0.000E+00

     total cpu time spent up to now is        0.6 secs

     total energy              =     -33.66095752 Ry
     Harris-Foulkes estimate   =     -33.73037087 Ry
     estimated scf accuracy    <       0.20731731 Ry

     iteration #  2     ecut=    60.00 Ry     beta=0.70
     Davidson diagonalization with overlap
     ethr =  2.59E-03,  avg # of iterations =  2.0

     negative rho (up, down):  1.160E-02 0.000E+00

     total cpu time spent up to now is        0.7 secs

     total energy              =     -33.69154141 Ry
     Harris-Foulkes estimate   =     -33.75067961 Ry
     estimated scf accuracy    <       0.13672646 Ry

     iteration #  3     ecut=    60.00 Ry     beta=0.70
     Davidson diagonalization with overlap
     ethr =  1.71E-03,  avg # of iterations =  2.0

     negative rho (up, down):  2.425E-04 0.000E+00

     total cpu time spent up to now is        0.8 secs

     total energy              =     -33.73645651 Ry
     Harris-Foulkes estimate   =     -33.72668477 Ry
     estimated scf accuracy    <       0.00681938 Ry

     iteration #  4     ecut=    60.00 Ry     beta=0.70
     Davidson diagonalization with overlap
     ethr =  8.52E-05,  avg # of iterations =  8.0

     negative rho (up, down):  2.472E-04 0.000E+00

     total cpu time spent up to now is        0.9 secs

     total energy              =     -33.73796938 Ry
     Harris-Foulkes estimate   =     -33.73799256 Ry
     estimated scf accuracy    <       0.00005665 Ry

     iteration #  5     ecut=    60.00 Ry     beta=0.70
     Davidson diagonalization with overlap
     ethr =  7.08E-07,  avg # of iterations = 12.0

     negative rho (up, down):  1.549E-05 0.000E+00

     total cpu time spent up to now is        1.0 secs

     total energy              =     -33.73797920 Ry
     Harris-Foulkes estimate   =     -33.73798342 Ry
     estimated scf accuracy    <       0.00000504 Ry

     iteration #  6     ecut=    60.00 Ry     beta=0.70
     Davidson diagonalization with overlap
     ethr =  6.29E-08,  avg # of iterations = 10.0

     total cpu time spent up to now is        1.1 secs

     total energy              =     -33.74205619 Ry
     Harris-Foulkes estimate   =     -33.74205731 Ry
     estimated scf accuracy    <       0.00000017 Ry

     iteration #  7     ecut=    60.00 Ry     beta=0.70
     Davidson diagonalization with overlap
     ethr =  2.09E-09,  avg # of iterations =  2.0

     total cpu time spent up to now is        1.2 secs

     End of self-consistent calculation

          k = 0.0000 0.0000 0.0000 ( 62669 PWs)   bands (ev):

   -25.4812 -12.9157  -9.2080  -7.0609  -0.9110   0.4220   0.7968   1.1102

     the Fermi energy is    -5.1975 ev

!    total energy              =     -33.74205615 Ry
     Harris-Foulkes estimate   =     -33.74205623 Ry
     estimated scf accuracy    <          9.0E-09 Ry

     convergence has been achieved in   7 iterations

     Forces acting on atoms (Ry/au):

     atom    1 type  2   force =     0.00000338    0.00000165    0.05215122
     atom    2 type  1   force =    -0.00000165    0.02843773   -0.02607547
     atom    3 type  1   force =    -0.00000173   -0.02843938   -0.02607575

     Total force =     0.075479     Total SCF correction =     0.000161

     Molecular Dynamics Calculation

     Starting temperature  =  8000.00 K

     temperature is controlled by Andersen thermostat
     Collision frequency = 1.0000/timestep
     mass H                =     1.01
     mass O                =    16.00
     Time step             =    10.00 a.u.,  0.4838 femto-seconds

     Entering Dynamics:    iteration =     1
                           time      =   0.0005 pico-seconds


     Andersen thermostat:    3 collisions

ATOMIC_POSITIONS (angstrom)
O       -0.003411686   0.001662490   0.116884041
H        0.034047515   0.756004163  -0.488382118
H        0.019999000  -0.782340633  -0.428041244


     kinetic energy (Ekin) =     0.08006422 Ry
     temperature           =  4213.70834292 K 
     Ekin + Etot (const)   =   -33.66199193 Ry

     Linear momentum :   -0.0000000000    0.0000000000   -0.0000000000

     Writing output data file pwscf.save
     Check: negative starting charge=   -0.071145
     NEW-OLD atomic charge density approx. for the potential
     Check: negative starting charge=   -0.071096

     negative rho (up, down):  5.108E-03 0.000E+00

     total cpu time spent up to now is        1.7 secs

     per-process dynamical memory:    32.7 Mb

     Self-consistent Calculation

     iteration #  1     ecut=    60.00 Ry     beta=0.70
     Davidson diagonalization with overlap
     c_bands:  1 eigenvalues not converged
     ethr =  1.00E-06,  avg # of iterations = 20.0

     negative rho (up, down):  1.279E-03 0.000E+00

     total cpu time spent up to now is        1.9 secs

     total energy              =     -33.73608360 Ry
     Harris-Foulkes estimate   =     -33.73198553 Ry
     estimated scf accuracy    <       0.00049613 Ry

     iteration #  2     ecut=    60.00 Ry     beta=0.70
     Davidson diagonalization with overlap
     ethr =  6.20E-06,  avg # of iterations = 14.0

     negative rho (up, down):  6.096E-04 0.000E+00

     total cpu time spent up to now is        2.1 secs

     total energy              =     -33.73623434 Ry
     Harris-Foulkes estimate   =     -33.73623771 Ry
     estimated scf accuracy    <       0.00021692 Ry

     iteration #  3     ecut=    60.00 Ry     beta=0.70
     Davidson diagonalization with overlap
     ethr =  2.71E-06,  avg # of iterations =  9.0

     negative rho (up, down):  8.193E-07 0.000E+00

     total cpu time spent up to now is        2.2 secs

     total energy              =     -33.73629326 Ry
     Harris-Foulkes estimate   =     -33.73629964 Ry
     estimated scf accuracy    <       0.00002986 Ry

     iteration #  4     ecut=    60.00 Ry     beta=0.70
     Davidson diagonalization with overlap
     ethr =  3.73E-07,  avg # of iterations =  5.0

     total cpu time spent up to now is        2.3 secs

     total energy              =     -33.74037575 Ry
     Harris-Foulkes estimate   =     -33.74037607 Ry
     estimated scf accuracy    <       0.00000011 Ry

     iteration #  5     ecut=    60.00 Ry     beta=0.70
     Davidson diagonalization with overlap
     ethr =  1.42E-09,  avg # of iterations =  3.0

     total cpu time spent up to now is        2.4 secs

     total energy              =     -33.74037576 Ry
     Harris-Foulkes estimate   =     -33.74037584 Ry
     estimated scf accuracy    <       0.00000002 Ry

     iteration #  6     ecut=    60.00 Ry     beta=0.70
     Davidson diagonalization with overlap
     ethr =  2.04E-10,  avg # of iterations =  2.0

     total cpu time spent up to now is        2.4 secs

     End of self-consistent calculation

          k = 0.0000 0.0000 0.0000 ( 62669 PWs)   bands (ev):

   -25.5197 -13.0986  -9.0994  -7.0642  -0.8886   0.4307   0.8030   1.1140

     the Fermi energy is    -5.2043 ev

!    total energy              =     -33.74037573 Ry
     Harris-Foulkes estimate   =     -33.74037577 Ry
     estimated scf accuracy    <          1.3E-09 Ry

     convergence has been achieved in   6 iterations

     Forces acting on atoms (Ry/au):

     atom    1 type  2   force =    -0.00637540    0.02343521    0.07280420
     atom    2 type  1   force =     0.00309599    0.02257590   -0.02995018
     atom    3 type  1   force =     0.00327941   -0.04601111   -0.04285402

     Total force =     0.106164     Total SCF correction =     0.000057

     Entering Dynamics:    iteration =     2
                           time      =   0.0010 pico-seconds


     Andersen thermostat:    3 collisions

ATOMIC_POSITIONS (angstrom)
O       -0.004226382  -0.001952706   0.111930769
H        0.029944265   0.814367162  -0.438385366
H        0.037008316  -0.783433209  -0.399570323


     kinetic energy (Ekin) =     0.14635535 Ry
     temperature           =  7702.55173898 K 
     Ekin + Etot (const)   =   -33.59402037 Ry
     Message from routine dynamics:
     Total linear momentum <> 0

     Linear momentum :   -0.9216315402    0.8520564284   -0.0481033869

     Writing output data file pwscf.save

     first order wave-functions extrapolation
     Check: negative starting charge=   -0.071096
     first order charge density extrapolation
     Check: negative starting charge=   -0.070992

     negative rho (up, down):  7.677E-03 0.000E+00

     total cpu time spent up to now is        3.0 secs

     per-process dynamical memory:    32.7 Mb

     Self-consistent Calculation

     iteration #  1     ecut=    60.00 Ry     beta=0.70
     Davidson diagonalization with overlap
     c_bands:  1 eigenvalues not converged
     ethr =  1.00E-06,  avg # of iterations = 20.0

     negative rho (up, down):  1.963E-03 0.000E+00

     total cpu time spent up to now is        3.3 secs

     total energy              =     -33.72977955 Ry
     Harris-Foulkes estimate   =     -33.72260934 Ry
     estimated scf accuracy    <       0.00077578 Ry

     iteration #  2     ecut=    60.00 Ry     beta=0.70
     Davidson diagonalization with overlap
     ethr =  9.70E-06,  avg # of iterations = 15.0

     negative rho (up, down):  1.485E-04 0.000E+00

     total cpu time spent up to now is        3.4 secs

     total energy              =     -33.73041058 Ry
     Harris-Foulkes estimate   =     -33.72984076 Ry
     estimated scf accuracy    <       0.00006291 Ry

     iteration #  3     ecut=    60.00 Ry     beta=0.70
     Davidson diagonalization with overlap
     c_bands:  1 eigenvalues not converged
     ethr =  7.86E-07,  avg # of iterations = 20.0

     negative rho (up, down):  2.868E-07 0.000E+00

     total cpu time spent up to now is        3.5 secs

     total energy              =     -33.73041553 Ry
     Harris-Foulkes estimate   =     -33.73041808 Ry
     estimated scf accuracy    <       0.00000198 Ry

     iteration #  4     ecut=    60.00 Ry     beta=0.70
     Davidson diagonalization with overlap
     ethr =  2.48E-08,  avg # of iterations = 11.0

     total cpu time spent up to now is        3.7 secs

     total energy              =     -33.73041556 Ry
     Harris-Foulkes estimate   =     -33.73041633 Ry
     estimated scf accuracy    <       0.00000086 Ry

     iteration #  5     ecut=    60.00 Ry     beta=0.70
     Davidson diagonalization with overlap
     ethr =  1.08E-08,  avg # of iterations =  2.0

     total cpu time spent up to now is        3.7 secs

     total energy              =     -33.73041562 Ry
     Harris-Foulkes estimate   =     -33.73041575 Ry
     estimated scf accuracy    <       0.00000001 Ry

     iteration #  6     ecut=    60.00 Ry     beta=0.70
     Davidson diagonalization with overlap
     ethr =  1.75E-10,  avg # of iterations =  2.0

     total cpu time spent up to now is        3.8 secs

     End of self-consistent calculation

          k = 0.0000 0.0000 0.0000 ( 62669 PWs)   bands (ev):

   -25.4456 -13.4035  -8.7933  -7.0406  -0.8858   0.4304   0.7905   1.1127

     the Fermi energy is    -6.7273 ev

!    total energy              =     -33.73041560 Ry
     Harris-Foulkes estimate   =     -33.73041562 Ry
     estimated scf accuracy    <          7.1E-10 Ry

     convergence has been achieved in   6 iterations

     Forces acting on atoms (Ry/au):

     atom    1 type  2   force =    -0.01166162    0.08335905    0.09624748
     atom    2 type  1   force =     0.00362969   -0.01409455   -0.01966548
     atom    3 type  1   force =     0.00803192   -0.06926450   -0.07658200

     Total force =     0.166354     Total SCF correction =     0.000107

     Entering Dynamics:    iteration =     3
                           time      =   0.0015 pico-seconds


     Andersen thermostat:    3 collisions

ATOMIC_POSITIONS (angstrom)
O       -0.004387009   0.004908643   0.107712765
H       -0.000058190   0.831884702  -0.344473128
H        0.069555359  -0.909645379  -0.426662686


     kinetic energy (Ekin) =     0.51853750 Ry
     temperature           = 27290.16615670 K 
     Ekin + Etot (const)   =   -33.21187809 Ry
     Message from routine dynamics:
     Total linear momentum <> 0

     Linear momentum :    0.3481831819   -1.1671208540    1.7155982471

     Writing output data file pwscf.save

     second order wave-functions extrapolation
     Check: negative starting charge=   -0.070992
     second order charge density extrapolation
     Check: negative starting charge=   -0.070659

     negative rho (up, down):  1.146E-02 0.000E+00

     total cpu time spent up to now is        4.4 secs

     per-process dynamical memory:    32.7 Mb

     Self-consistent Calculation

     iteration #  1     ecut=    60.00 Ry     beta=0.70
     Davidson diagonalization with overlap
     c_bands:  1 eigenvalues not converged
     ethr =  1.00E-06,  avg # of iterations = 20.0

     negative rho (up, down):  2.905E-03 0.000E+00

     total cpu time spent up to now is        4.6 secs

     total energy              =     -33.71025903 Ry
     Harris-Foulkes estimate   =     -33.70302817 Ry
     estimated scf accuracy    <       0.00772996 Ry

     iteration #  2     ecut=    60.00 Ry     beta=0.70
     Davidson diagonalization with overlap
     ethr =  9.66E-05,  avg # of iterations =  4.0

     negative rho (up, down):  1.443E-03 0.000E+00

     total cpu time spent up to now is        4.8 secs

     total energy              =     -33.71261596 Ry
     Harris-Foulkes estimate   =     -33.71282726 Ry
     estimated scf accuracy    <       0.00295351 Ry

     iteration #  3     ecut=    60.00 Ry     beta=0.70
     Davidson diagonalization with overlap
     ethr =  3.69E-05,  avg # of iterations =  4.0

     negative rho (up, down):  2.568E-04 0.000E+00

     total cpu time spent up to now is        4.8 secs

     total energy              =     -33.71361154 Ry
     Harris-Foulkes estimate   =     -33.71358375 Ry
     estimated scf accuracy    <       0.00047332 Ry

     iteration #  4     ecut=    60.00 Ry     beta=0.70
     Davidson diagonalization with overlap
     ethr =  5.92E-06,  avg # of iterations = 12.0

     negative rho (up, down):  1.581E-05 0.000E+00

     total cpu time spent up to now is        5.0 secs

     total energy              =     -33.71369866 Ry
     Harris-Foulkes estimate   =     -33.71370660 Ry
     estimated scf accuracy    <       0.00000911 Ry

     iteration #  5     ecut=    60.00 Ry     beta=0.70
     Davidson diagonalization with overlap
     ethr =  1.14E-07,  avg # of iterations =  9.0

     negative rho (up, down):  2.034E-08 0.000E+00

     total cpu time spent up to now is        5.1 secs

     total energy              =     -33.71370002 Ry
     Harris-Foulkes estimate   =     -33.71370100 Ry
     estimated scf accuracy    <       0.00000021 Ry

     iteration #  6     ecut=    60.00 Ry     beta=0.70
     Davidson diagonalization with overlap
     ethr =  2.57E-09,  avg # of iterations =  2.0

     total cpu time spent up to now is        5.1 secs

     End of self-consistent calculation

          k = 0.0000 0.0000 0.0000 ( 62669 PWs)   bands (ev):

   -24.9508 -13.3058  -8.3370  -6.9175  -1.0834   0.3387   0.7062   1.1055

     the Fermi energy is    -6.6042 ev

!    total energy              =     -33.71369988 Ry
     Harris-Foulkes estimate   =     -33.71370007 Ry
     estimated scf accuracy    <          7.1E-09 Ry

     convergence has been achieved in   6 iterations

     Forces acting on atoms (Ry/au):

     atom    1 type  2   force =    -0.00126539   -0.15804976    0.06551025
     atom    2 type  1   force =     0.00555349    0.04608996   -0.08098246
     atom    3 type  1   force =    -0.00428810    0.11195980    0.01547221

     Total force =     0.225342     Total SCF correction =     0.000585

     Entering Dynamics:    iteration =     4
                           time      =   0.0019 pico-seconds


     Andersen thermostat:    3 collisions

ATOMIC_POSITIONS (angstrom)
O        0.001140718   0.006337667   0.110761355
H       -0.041046280   0.847062165  -0.369074779
H        0.022975492  -0.947460855  -0.450355540


     kinetic energy (Ekin) =     0.14440312 Ry
     temperature           =  7599.80746646 K 
     Ekin + Etot (const)   =   -33.56929676 Ry
     Message from routine dynamics:
     Total linear momentum <> 0

     Linear momentum :    0.2579713061   -0.1119812528    1.3009796979

     Writing output data file pwscf.save

     second order wave-functions extrapolation
     Check: negative starting charge=   -0.070659
     second order charge density extrapolation
     Check: negative starting charge=   -0.070496

     negative rho (up, down):  6.582E-03 0.000E+00

     total cpu time spent up to now is        5.7 secs

     per-process dynamical memory:    32.7 Mb

     Self-consistent Calculation

     iteration #  1     ecut=    60.00 Ry     beta=0.70
     Davidson diagonalization with overlap
     c_bands:  1 eigenvalues not converged
     ethr =  1.00E-06,  avg # of iterations = 20.0

     negative rho (up, down):  1.653E-03 0.000E+00

     total cpu time spent up to now is        6.0 secs

     total energy              =     -33.70664204 Ry
     Harris-Foulkes estimate   =     -33.70155087 Ry
     estimated scf accuracy    <       0.00173072 Ry

     iteration #  2     ecut=    60.00 Ry     beta=0.70
     Davidson diagonalization with overlap
     ethr =  2.16E-05,  avg # of iterations =  6.0

     negative rho (up, down):  9.814E-04 0.000E+00

     total cpu time spent up to now is        6.1 secs

     total energy              =     -33.70719336 Ry
     Harris-Foulkes estimate   =     -33.70764599 Ry
     estimated scf accuracy    <       0.00151342 Ry

     iteration #  3     ecut=    60.00 Ry     beta=0.70
     Davidson diagonalization with overlap
     ethr =  1.89E-05,  avg # of iterations =  3.0

     negative rho (up, down):  7.827E-05 0.000E+00

     total cpu time spent up to now is        6.2 secs

     total energy              =     -33.70757064 Ry
     Harris-Foulkes estimate   =     -33.70754353 Ry
     estimated scf accuracy    <       0.00004021 Ry

     iteration #  4     ecut=    60.00 Ry     beta=0.70
     Davidson diagonalization with overlap
     ethr =  5.03E-07,  avg # of iterations = 13.0

     negative rho (up, down):  1.615E-06 0.000E+00

     total cpu time spent up to now is        6.3 secs

     total energy              =     -33.70757649 Ry
     Harris-Foulkes estimate   =     -33.70757928 Ry
     estimated scf accuracy    <       0.00000053 Ry

     iteration #  5     ecut=    60.00 Ry     beta=0.70
     Davidson diagonalization with overlap
     ethr =  6.68E-09,  avg # of iterations =  2.0

     total cpu time spent up to now is        6.4 secs

     total energy              =     -33.70757615 Ry
     Harris-Foulkes estimate   =     -33.70757665 Ry
     estimated scf accuracy    <       0.00000002 Ry

     iteration #  6     ecut=    60.00 Ry     beta=0.70
     Davidson diagonalization with overlap
     ethr =  2.98E-10,  avg # of iterations =  2.0

     total cpu time spent up to now is        6.4 secs

     End of self-consistent calculation

          k = 0.0000 0.0000 0.0000 ( 62669 PWs)   bands (ev):

   -24.6525 -12.9258  -8.3374  -6.8558  -1.2573   0.2753   0.6423   1.0985

     the Fermi energy is    -6.5425 ev

!    total energy              =     -33.70757611 Ry
     Harris-Foulkes estimate   =     -33.70757616 Ry
     estimated scf accuracy    <          1.0E-09 Ry

     convergence has been achieved in   6 iterations

     Forces acting on atoms (Ry/au):

     atom    1 type  2   force =     0.00680471   -0.14192071    0.02174029
     atom    2 type  1   force =    -0.00183406   -0.00026092   -0.05673926
     atom    3 type  1   force =    -0.00497066    0.14218163    0.03499897

     Total force =     0.212952     Total SCF correction =     0.000169

     Entering Dynamics:    iteration =     5
                           time      =   0.0024 pico-seconds


     Andersen thermostat:    3 collisions

ATOMIC_POSITIONS (angstrom)
O        0.002204865   0.005409198   0.115042353
H        0.005188918   0.818444552  -0.361400103
H       -0.040117468  -0.904134812  -0.525848000


     kinetic energy (Ekin) =     0.24751492 Ry
     temperature           = 13026.48929835 K 
     Ekin + Etot (const)   =   -33.46006119 Ry
     Message from routine dynamics:
     Total linear momentum <> 0

     Linear momentum :    0.6298948801   -0.1663954992    0.2086301318

     Writing output data file pwscf.save

     second order wave-functions extrapolation
     Check: negative starting charge=   -0.070496
     second order charge density extrapolation
     Check: negative starting charge=   -0.070555

     negative rho (up, down):  4.443E-03 0.000E+00

     total cpu time spent up to now is        7.1 secs

     per-process dynamical memory:    32.7 Mb

     Self-consistent Calculation

     iteration #  1     ecut=    60.00 Ry     beta=0.70
     Davidson diagonalization with overlap
     c_bands:  1 eigenvalues not converged
     ethr =  1.00E-06,  avg # of iterations = 20.0

     negative rho (up, down):  1.050E-03 0.000E+00

     total cpu time spent up to now is        7.3 secs

     total energy              =     -33.71012669 Ry
     Harris-Foulkes estimate   =     -33.70687235 Ry
     estimated scf accuracy    <       0.00131702 Ry

     iteration #  2     ecut=    60.00 Ry     beta=0.70
     Davidson diagonalization with overlap
     ethr =  1.65E-05,  avg # of iterations =  7.0

     negative rho (up, down):  2.369E-04 0.000E+00

     total cpu time spent up to now is        7.4 secs

     total energy              =     -33.71027433 Ry
     Harris-Foulkes estimate   =     -33.71027643 Ry
     estimated scf accuracy    <       0.00019713 Ry

     iteration #  3     ecut=    60.00 Ry     beta=0.70
     Davidson diagonalization with overlap
     ethr =  2.46E-06,  avg # of iterations =  9.0

     negative rho (up, down):  1.664E-05 0.000E+00

     total cpu time spent up to now is        7.5 secs

     total energy              =     -33.71437982 Ry
     Harris-Foulkes estimate   =     -33.71444056 Ry
     estimated scf accuracy    <       0.00013275 Ry

     iteration #  4     ecut=    60.00 Ry     beta=0.70
     Davidson diagonalization with overlap
     ethr =  1.66E-06,  avg # of iterations =  3.0

     negative rho (up, down):  2.748E-07 0.000E+00

     total cpu time spent up to now is        7.6 secs

     total energy              =     -33.71033013 Ry
     Harris-Foulkes estimate   =     -33.71033071 Ry
     estimated scf accuracy    <       0.00000183 Ry

     iteration #  5     ecut=    60.00 Ry     beta=0.70
     Davidson diagonalization with overlap
     ethr =  2.29E-08,  avg # of iterations =  2.0

     total cpu time spent up to now is        7.7 secs

     total energy              =     -33.71033062 Ry
     Harris-Foulkes estimate   =     -33.71033058 Ry
     estimated scf accuracy    <       0.00000004 Ry

     iteration #  6     ecut=    60.00 Ry     beta=0.70
     Davidson diagonalization with overlap
     ethr =  4.99E-10,  avg # of iterations =  2.0

     total cpu time spent up to now is        7.8 secs

     End of self-consistent calculation

          k = 0.0000 0.0000 0.0000 ( 62669 PWs)   bands (ev):

   -24.8629 -12.8198  -8.6069  -6.9054  -1.2193   0.2769   0.6831   1.1032

     the Fermi energy is    -6.5921 ev

!    total energy              =     -33.71033063 Ry
     Harris-Foulkes estimate   =     -33.71033063 Ry
     estimated scf accuracy    <          1.6E-09 Ry

     convergence has been achieved in   6 iterations

     Forces acting on atoms (Ry/au):

     atom    1 type  2   force =    -0.00192679   -0.18959695    0.02161249
     atom    2 type  1   force =    -0.00218735    0.05518333   -0.07742286
     atom    3 type  1   force =     0.00411414    0.13441362    0.05581036

     Total force =     0.258188     Total SCF correction =     0.000173

     Entering Dynamics:    iteration =     6
                           time      =   0.0029 pico-seconds


     Andersen thermostat:    3 collisions

ATOMIC_POSITIONS (angstrom)
O       -0.003131295   0.000891293   0.113718891
H        0.129231344   0.817859116  -0.363887022
H       -0.079626678  -0.831978608  -0.502395347


     kinetic energy (Ekin) =     0.39602499 Ry
     temperature           = 20842.44195949 K 
     Ekin + Etot (const)   =   -33.31430564 Ry
     Message from routine dynamics:
     Total linear momentum <> 0

     Linear momentum :   -0.2891060477   -0.8585330132    0.9083745604

     Writing output data file pwscf.save

     second order wave-functions extrapolation
     Check: negative starting charge=   -0.070555
     second order charge density extrapolation
     Check: negative starting charge=   -0.070862

     negative rho (up, down):  6.701E-03 0.000E+00

     total cpu time spent up to now is        8.4 secs

     per-process dynamical memory:    32.7 Mb

     Self-consistent Calculation

     iteration #  1     ecut=    60.00 Ry     beta=0.70
     Davidson diagonalization with overlap
     c_bands:  1 eigenvalues not converged
     ethr =  1.00E-06,  avg # of iterations = 20.0

     negative rho (up, down):  1.675E-03 0.000E+00

     total cpu time spent up to now is        8.6 secs

     total energy              =     -33.72791517 Ry
     Harris-Foulkes estimate   =     -33.72222575 Ry
     estimated scf accuracy    <       0.00207463 Ry

     iteration #  2     ecut=    60.00 Ry     beta=0.70
     Davidson diagonalization with overlap
     ethr =  2.59E-05,  avg # of iterations = 14.0

     negative rho (up, down):  7.642E-04 0.000E+00

     total cpu time spent up to now is        8.7 secs

     total energy              =     -33.72843795 Ry
     Harris-Foulkes estimate   =     -33.72847429 Ry
     estimated scf accuracy    <       0.00072249 Ry

     iteration #  3     ecut=    60.00 Ry     beta=0.70
     Davidson diagonalization with overlap
     ethr =  9.03E-06,  avg # of iterations =  5.0

     negative rho (up, down):  5.291E-05 0.000E+00

     total cpu time spent up to now is        8.8 secs

     total energy              =     -33.72864794 Ry
     Harris-Foulkes estimate   =     -33.72869233 Ry
     estimated scf accuracy    <       0.00015995 Ry

     iteration #  4     ecut=    60.00 Ry     beta=0.70
     Davidson diagonalization with overlap
     ethr =  2.00E-06,  avg # of iterations =  5.0

     negative rho (up, down):  1.386E-06 0.000E+00

     total cpu time spent up to now is        8.9 secs

     total energy              =     -33.73275558 Ry
     Harris-Foulkes estimate   =     -33.73275659 Ry
     estimated scf accuracy    <       0.00000158 Ry

     iteration #  5     ecut=    60.00 Ry     beta=0.70
     Davidson diagonalization with overlap
     ethr =  1.97E-08,  avg # of iterations =  2.0

     total cpu time spent up to now is        9.0 secs

     total energy              =     -33.73275593 Ry
     Harris-Foulkes estimate   =     -33.73275605 Ry
     estimated scf accuracy    <       0.00000005 Ry

     iteration #  6     ecut=    60.00 Ry     beta=0.70
     Davidson diagonalization with overlap
     ethr =  6.33E-10,  avg # of iterations =  2.0

     total cpu time spent up to now is        9.1 secs

     End of self-consistent calculation

          k = 0.0000 0.0000 0.0000 ( 62669 PWs)   bands (ev):

   -25.0659 -13.0727  -8.6937  -6.9631  -1.0174   0.3762   0.7212   1.1132

     the Fermi energy is    -5.0914 ev

!    total energy              =     -33.73275596 Ry
     Harris-Foulkes estimate   =     -33.73275594 Ry
     estimated scf accuracy    <          1.5E-09 Ry

     convergence has been achieved in   6 iterations

     Forces acting on atoms (Ry/au):

     atom    1 type  2   force =    -0.02038803   -0.10702492    0.03682787
     atom    2 type  1   force =     0.00933208    0.03174102   -0.05625348
     atom    3 type  1   force =     0.01105595    0.07528390    0.01942562

     Total force =     0.153794     Total SCF correction =     0.000137

     Entering Dynamics:    iteration =     7
                           time      =   0.0034 pico-seconds


     Andersen thermostat:    3 collisions

ATOMIC_POSITIONS (angstrom)
O       -0.006176453   0.003620812   0.117079768
H        0.182679298   0.827002398  -0.331409328
H       -0.084834492  -0.884361793  -0.588114661


     kinetic energy (Ekin) =     0.25717571 Ry
     temperature           = 13534.92813942 K 
     Ekin + Etot (const)   =   -33.47558025 Ry
     Message from routine dynamics:
     Total linear momentum <> 0

     Linear momentum :    0.3564698168   -0.2605441355    0.8562545846

     Writing output data file pwscf.save

     second order wave-functions extrapolation
     Check: negative starting charge=   -0.070862
     second order charge density extrapolation
     Check: negative starting charge=   -0.070518

     negative rho (up, down):  6.783E-03 0.000E+00

     total cpu time spent up to now is        9.8 secs

     per-process dynamical memory:    32.7 Mb

     Self-consistent Calculation

     iteration #  1     ecut=    60.00 Ry     beta=0.70
     Davidson diagonalization with overlap
     c_bands:  1 eigenvalues not converged
     ethr =  1.00E-06,  avg # of iterations = 20.0

     negative rho (up, down):  1.703E-03 0.000E+00

     total cpu time spent up to now is       10.0 secs

     total energy              =     -33.70525545 Ry
     Harris-Foulkes estimate   =     -33.70103134 Ry
     estimated scf accuracy    <       0.00390817 Ry

     iteration #  2     ecut=    60.00 Ry     beta=0.70
     Davidson diagonalization with overlap
     ethr =  4.89E-05,  avg # of iterations =  7.0

     negative rho (up, down):  1.033E-03 0.000E+00

     total cpu time spent up to now is       10.1 secs

     total energy              =     -33.71020376 Ry
     Harris-Foulkes estimate   =     -33.71169926 Ry
     estimated scf accuracy    <       0.00374378 Ry

     iteration #  3     ecut=    60.00 Ry     beta=0.70
     Davidson diagonalization with overlap
     ethr =  4.68E-05,  avg # of iterations =  2.0

     negative rho (up, down):  7.379E-05 0.000E+00

     total cpu time spent up to now is       10.2 secs

     total energy              =     -33.70700224 Ry
     Harris-Foulkes estimate   =     -33.70697052 Ry
     estimated scf accuracy    <       0.00008622 Ry

     iteration #  4     ecut=    60.00 Ry     beta=0.70
     Davidson diagonalization with overlap
     ethr =  1.08E-06,  avg # of iterations = 14.0

     negative rho (up, down):  2.194E-06 0.000E+00

     total cpu time spent up to now is       10.4 secs

     total energy              =     -33.70701633 Ry
     Harris-Foulkes estimate   =     -33.70701912 Ry
     estimated scf accuracy    <       0.00000158 Ry

     iteration #  5     ecut=    60.00 Ry     beta=0.70
     Davidson diagonalization with overlap
     ethr =  1.97E-08,  avg # of iterations =  2.0

     total cpu time spent up to now is       10.4 secs

     total energy              =     -33.71109361 Ry
     Harris-Foulkes estimate   =     -33.71109412 Ry
     estimated scf accuracy    <       0.00000007 Ry

     iteration #  6     ecut=    60.00 Ry     beta=0.70
     Davidson diagonalization with overlap
     ethr =  8.20E-10,  avg # of iterations =  2.0

     total cpu time spent up to now is       10.5 secs

     End of self-consistent calculation

          k = 0.0000 0.0000 0.0000 ( 62669 PWs)   bands (ev):

   -24.7203 -12.6101  -8.6376  -6.8803  -1.3127   0.2428   0.6489   1.0984

     the Fermi energy is    -5.0162 ev

!    total energy              =     -33.71109357 Ry
     Harris-Foulkes estimate   =     -33.71109363 Ry
     estimated scf accuracy    <          2.4E-09 Ry

     convergence has been achieved in   6 iterations

     Forces acting on atoms (Ry/au):

     atom    1 type  2   force =    -0.03093095   -0.17475485   -0.01454280
     atom    2 type  1   force =     0.01316915    0.03303168   -0.05975157
     atom    3 type  1   force =     0.01776180    0.14172317    0.07429437

     Total force =     0.249926     Total SCF correction =     0.000318

     Entering Dynamics:    iteration =     8
                           time      =   0.0039 pico-seconds


     Andersen thermostat:    3 collisions

ATOMIC_POSITIONS (angstrom)
O       -0.005029532   0.000417458   0.114393000
H        0.158625198   0.836197857  -0.288680938
H       -0.078949448  -0.842811054  -0.588280395


     kinetic energy (Ekin) =     0.10871459 Ry
     temperature           =  5721.55201824 K 
     Ekin + Etot (const)   =   -33.60237898 Ry
     Message from routine dynamics:
     Total linear momentum <> 0

     Linear momentum :    1.2545076386   -0.3085445750    1.1799625302

     Writing output data file pwscf.save

     second order wave-functions extrapolation
     Check: negative starting charge=   -0.070518
     second order charge density extrapolation
     Check: negative starting charge=   -0.070591

     negative rho (up, down):  4.268E-03 0.000E+00

     total cpu time spent up to now is       11.2 secs

     per-process dynamical memory:    32.7 Mb

     Self-consistent Calculation

     iteration #  1     ecut=    60.00 Ry     beta=0.70
     Davidson diagonalization with overlap
     c_bands:  1 eigenvalues not converged
     ethr =  1.00E-06,  avg # of iterations = 20.0

     negative rho (up, down):  1.056E-03 0.000E+00

     total cpu time spent up to now is       11.4 secs

     total energy              =     -33.71310388 Ry
     Harris-Foulkes estimate   =     -33.71030844 Ry
     estimated scf accuracy    <       0.00083995 Ry

     iteration #  2     ecut=    60.00 Ry     beta=0.70
     Davidson diagonalization with overlap
     ethr =  1.05E-05,  avg # of iterations = 14.0

     negative rho (up, down):  6.212E-04 0.000E+00

     total cpu time spent up to now is       11.6 secs

     total energy              =     -33.71327902 Ry
     Harris-Foulkes estimate   =     -33.71360691 Ry
     estimated scf accuracy    <       0.00079760 Ry

     iteration #  3     ecut=    60.00 Ry     beta=0.70
     Davidson diagonalization with overlap
     ethr =  9.97E-06,  avg # of iterations =  2.0

     negative rho (up, down):  9.022E-07 0.000E+00

     total cpu time spent up to now is       11.6 secs

     total energy              =     -33.71345695 Ry
     Harris-Foulkes estimate   =     -33.71345353 Ry
     estimated scf accuracy    <       0.00001803 Ry

     iteration #  4     ecut=    60.00 Ry     beta=0.70
     Davidson diagonalization with overlap
     ethr =  2.25E-07,  avg # of iterations =  8.0

     negative rho (up, down):  4.707E-08 0.000E+00

     total cpu time spent up to now is       11.8 secs

     total energy              =     -33.71753798 Ry
     Harris-Foulkes estimate   =     -33.71753812 Ry
     estimated scf accuracy    <       0.00000030 Ry

     iteration #  5     ecut=    60.00 Ry     beta=0.70
     Davidson diagonalization with overlap
     ethr =  3.69E-09,  avg # of iterations =  2.0

     total cpu time spent up to now is       11.8 secs

     total energy              =     -33.71753781 Ry
     Harris-Foulkes estimate   =     -33.71753803 Ry
     estimated scf accuracy    <       0.00000002 Ry

     iteration #  6     ecut=    60.00 Ry     beta=0.70
     Davidson diagonalization with overlap
     ethr =  2.16E-10,  avg # of iterations =  2.0

     total cpu time spent up to now is       11.9 secs

     End of self-consistent calculation

          k = 0.0000 0.0000 0.0000 ( 62669 PWs)   bands (ev):

   -24.9027 -12.8919  -8.6024  -6.9155  -1.1740   0.2964   0.6886   1.1073

     the Fermi energy is    -5.0550 ev

!    total energy              =     -33.71753773 Ry
     Harris-Foulkes estimate   =     -33.71753781 Ry
     estimated scf accuracy    <          4.2E-10 Ry

     convergence has been achieved in   6 iterations

     Forces acting on atoms (Ry/au):

     atom    1 type  2   force =    -0.03352897   -0.18231911    0.01196076
     atom    2 type  1   force =     0.01735977    0.06031707   -0.07171717
     atom    3 type  1   force =     0.01616920    0.12200204    0.05975641

     Total force =     0.249614     Total SCF correction =     0.000063

     Entering Dynamics:    iteration =     9
                           time      =   0.0044 pico-seconds


     Andersen thermostat:    3 collisions

ATOMIC_POSITIONS (angstrom)
O       -0.007540728  -0.004155876   0.116412863
H        0.199663789   0.878298486  -0.266419390
H       -0.080206718  -0.812462820  -0.642539771


     kinetic energy (Ekin) =     0.15642575 Ry
     temperature           =  8232.54766480 K 
     Ekin + Etot (const)   =   -33.56111199 Ry
     Message from routine dynamics:
     Total linear momentum <> 0

     Linear momentum :   -1.3501922773    0.0410524617    0.0060975818

     Writing output data file pwscf.save

     second order wave-functions extrapolation
     Check: negative starting charge=   -0.070591
     second order charge density extrapolation
     Check: negative starting charge=   -0.070573

     negative rho (up, down):  5.877E-03 0.000E+00

     total cpu time spent up to now is       12.5 secs

     per-process dynamical memory:    32.7 Mb

     Self-consistent Calculation

     iteration #  1     ecut=    60.00 Ry     beta=0.70
     Davidson diagonalization with overlap
     c_bands:  1 eigenvalues not converged
     ethr =  1.00E-06,  avg # of iterations = 20.0

     negative rho (up, down):  1.473E-03 0.000E+00

     total cpu time spent up to now is       12.8 secs

     total energy              =     -33.71477331 Ry
     Harris-Foulkes estimate   =     -33.71059095 Ry
     estimated scf accuracy    <       0.00165136 Ry

     iteration #  2     ecut=    60.00 Ry     beta=0.70
     Davidson diagonalization with overlap
     ethr =  2.06E-05,  avg # of iterations = 12.0

     negative rho (up, down):  8.640E-04 0.000E+00

     total cpu time spent up to now is       12.9 secs

     total energy              =     -33.71518880 Ry
     Harris-Foulkes estimate   =     -33.71569067 Ry
     estimated scf accuracy    <       0.00139015 Ry

     iteration #  3     ecut=    60.00 Ry     beta=0.70
     Davidson diagonalization with overlap
     ethr =  1.74E-05,  avg # of iterations =  2.0

     negative rho (up, down):  8.787E-05 0.000E+00

     total cpu time spent up to now is       13.0 secs

     total energy              =     -33.71552260 Ry
     Harris-Foulkes estimate   =     -33.71551755 Ry
     estimated scf accuracy    <       0.00004650 Ry

     iteration #  4     ecut=    60.00 Ry     beta=0.70
     Davidson diagonalization with overlap
     ethr =  5.81E-07,  avg # of iterations = 13.0

     negative rho (up, down):  3.560E-06 0.000E+00

     total cpu time spent up to now is       13.1 secs

     total energy              =     -33.71960809 Ry
     Harris-Foulkes estimate   =     -33.71960966 Ry
     estimated scf accuracy    <       0.00000078 Ry

     iteration #  5     ecut=    60.00 Ry     beta=0.70
     Davidson diagonalization with overlap
     ethr =  9.77E-09,  avg # of iterations =  2.0

     total cpu time spent up to now is       13.2 secs

     total energy              =     -33.71960822 Ry
     Harris-Foulkes estimate   =     -33.71960832 Ry
     estimated scf accuracy    <       0.00000003 Ry

     iteration #  6     ecut=    60.00 Ry     beta=0.70
     Davidson diagonalization with overlap
     ethr =  3.31E-10,  avg # of iterations =  2.0

     total cpu time spent up to now is       13.3 secs

     End of self-consistent calculation

          k = 0.0000 0.0000 0.0000 ( 62669 PWs)   bands (ev):

   -24.6325 -12.6154  -8.6206  -6.8730  -1.2545   0.2823   0.6180   1.1028

     the Fermi energy is    -4.9909 ev

!    total energy              =     -33.71960818 Ry
     Harris-Foulkes estimate   =     -33.71960823 Ry
     estimated scf accuracy    <          7.5E-10 Ry

     convergence has been achieved in   6 iterations

     Forces acting on atoms (Ry/au):

     atom    1 type  2   force =    -0.02013545   -0.11480569   -0.03571230
     atom    2 type  1   force =     0.00350600   -0.00750459   -0.03600978
     atom    3 type  1   force =     0.01662945    0.12231028    0.07172208

     Total force =     0.191329     Total SCF correction =     0.000295

     Entering Dynamics:    iteration =    10
                           time      =   0.0048 pico-seconds


     Andersen thermostat:    3 collisions

ATOMIC_POSITIONS (angstrom)
O       -0.011447822  -0.003617682   0.117932043
H        0.247044343   0.888058118  -0.271871667
H       -0.065692710  -0.830748304  -0.661153709


     kinetic energy (Ekin) =     0.07241557 Ry
     temperature           =  3811.16701266 K 
     Ekin + Etot (const)   =   -33.64719260 Ry
     Message from routine dynamics:
     Total linear momentum <> 0

     Linear momentum :   -0.9443547181    0.0337123857    0.0742742440

     Writing output data file pwscf.save

     second order wave-functions extrapolation
     Check: negative starting charge=   -0.070573
     second order charge density extrapolation
     Check: negative starting charge=   -0.070496

     negative rho (up, down):  2.903E-03 0.000E+00

     total cpu time spent up to now is       14.0 secs

     per-process dynamical memory:    32.7 Mb

     Self-consistent Calculation

     iteration #  1     ecut=    60.00 Ry     beta=0.70
     Davidson diagonalization with overlap
     ethr =  1.00E-06,  avg # of iterations = 13.0

     negative rho (up, down):  7.027E-04 0.000E+00

     total cpu time spent up to now is       14.2 secs

     total energy              =     -33.70837146 Ry
     Harris-Foulkes estimate   =     -33.70689754 Ry
     estimated scf accuracy    <       0.00014591 Ry

     iteration #  2     ecut=    60.00 Ry     beta=0.70
     Davidson diagonalization with overlap
     ethr =  1.82E-06,  avg # of iterations =  7.0

     negative rho (up, down):  4.111E-04 0.000E+00

     total cpu time spent up to now is       14.3 secs

     total energy              =     -33.70840736 Ry
     Harris-Foulkes estimate   =     -33.70846255 Ry
     estimated scf accuracy    <       0.00014658 Ry

     iteration #  3     ecut=    60.00 Ry     beta=0.70
     Davidson diagonalization with overlap
     ethr =  1.82E-06,  avg # of iterations =  3.0

     negative rho (up, down):  9.211E-06 0.000E+00

     total cpu time spent up to now is       14.4 secs

     total energy              =     -33.71251416 Ry
     Harris-Foulkes estimate   =     -33.71251764 Ry
     estimated scf accuracy    <       0.00000401 Ry

     iteration #  4     ecut=    60.00 Ry     beta=0.70
     Davidson diagonalization with overlap
     ethr =  5.01E-08,  avg # of iterations =  3.0

     negative rho (up, down):  2.035E-08 0.000E+00

     total cpu time spent up to now is       14.5 secs

     total energy              =     -33.71251464 Ry
     Harris-Foulkes estimate   =     -33.71251525 Ry
     estimated scf accuracy    <       0.00000005 Ry

     iteration #  5     ecut=    60.00 Ry     beta=0.70
     Davidson diagonalization with overlap
     ethr =  6.12E-10,  avg # of iterations =  2.0

     total cpu time spent up to now is       14.6 secs

     End of self-consistent calculation

          k = 0.0000 0.0000 0.0000 ( 62669 PWs)   bands (ev):

   -24.4315 -12.3842  -8.6182  -6.8359  -1.3728   0.2428   0.5572   1.0965

     the Fermi energy is    -4.9454 ev

!    total energy              =     -33.71251447 Ry
     Harris-Foulkes estimate   =     -33.71251467 Ry
     estimated scf accuracy    <          2.1E-09 Ry

     convergence has been achieved in   5 iterations

     Forces acting on atoms (Ry/au):

     atom    1 type  2   force =    -0.01186154   -0.09751109   -0.06230355
     atom    2 type  1   force =    -0.00408722   -0.03714081   -0.02252839
     atom    3 type  1   force =     0.01594876    0.13465190    0.08483194

     Total force =     0.202525     Total SCF correction =     0.000574

     Entering Dynamics:    iteration =    11
                           time      =   0.0053 pico-seconds


     Andersen thermostat:    3 collisions

ATOMIC_POSITIONS (angstrom)
O       -0.003783735  -0.004491700   0.113664033
H        0.188208097   0.855342090  -0.297160772
H       -0.128267741  -0.784186451  -0.568252570


     kinetic energy (Ekin) =     0.36361772 Ry
     temperature           = 19136.87622877 K 
     Ekin + Etot (const)   =   -33.34889675 Ry
     Message from routine dynamics:
     Total linear momentum <> 0

     Linear momentum :   -0.2339827994    1.5541315232   -0.2299065060

     Writing output data file pwscf.save

     second order wave-functions extrapolation
     Check: negative starting charge=   -0.070496
     second order charge density extrapolation
     Check: negative starting charge=   -0.070835

     negative rho (up, down):  3.367E-03 0.000E+00

     total cpu time spent up to now is       15.2 secs

     per-process dynamical memory:    32.7 Mb

     Self-consistent Calculation

     iteration #  1     ecut=    60.00 Ry     beta=0.70
     Davidson diagonalization with overlap
     ethr =  1.00E-06,  avg # of iterations = 18.0

     negative rho (up, down):  8.037E-04 0.000E+00

     total cpu time spent up to now is       15.4 secs

     total energy              =     -33.72859540 Ry
     Harris-Foulkes estimate   =     -33.72668538 Ry
     estimated scf accuracy    <       0.00073685 Ry

     iteration #  2     ecut=    60.00 Ry     beta=0.70
     Davidson diagonalization with overlap
     ethr =  9.21E-06,  avg # of iterations =  7.0

     negative rho (up, down):  2.611E-04 0.000E+00

     total cpu time spent up to now is       15.5 secs

     total energy              =     -33.72867770 Ry
     Harris-Foulkes estimate   =     -33.72872559 Ry
     estimated scf accuracy    <       0.00015587 Ry

     iteration #  3     ecut=    60.00 Ry     beta=0.70
     Davidson diagonalization with overlap
     ethr =  1.95E-06,  avg # of iterations =  8.0

     negative rho (up, down):  1.520E-05 0.000E+00

     total cpu time spent up to now is       15.6 secs

     total energy              =     -33.73278927 Ry
     Harris-Foulkes estimate   =     -33.73282079 Ry
     estimated scf accuracy    <       0.00006962 Ry

     iteration #  4     ecut=    60.00 Ry     beta=0.70
     Davidson diagonalization with overlap
     ethr =  8.70E-07,  avg # of iterations =  2.0

     negative rho (up, down):  2.490E-07 0.000E+00

     total cpu time spent up to now is       15.7 secs

     total energy              =     -33.73280397 Ry
     Harris-Foulkes estimate   =     -33.73280383 Ry
     estimated scf accuracy    <       0.00000107 Ry

     iteration #  5     ecut=    60.00 Ry     beta=0.70
     Davidson diagonalization with overlap
     ethr =  1.33E-08,  avg # of iterations =  2.0

     total cpu time spent up to now is       15.8 secs

     total energy              =     -33.73280442 Ry
     Harris-Foulkes estimate   =     -33.73280426 Ry
     estimated scf accuracy    <       0.00000003 Ry

     iteration #  6     ecut=    60.00 Ry     beta=0.70
     Davidson diagonalization with overlap
     ethr =  3.45E-10,  avg # of iterations =  2.0

     total cpu time spent up to now is       15.8 secs

     End of self-consistent calculation

          k = 0.0000 0.0000 0.0000 ( 62669 PWs)   bands (ev):

   -24.9445 -12.9968  -8.6504  -6.9398  -1.0504   0.3678   0.6927   1.1108

     the Fermi energy is    -5.0629 ev

!    total energy              =     -33.73280441 Ry
     Harris-Foulkes estimate   =     -33.73280443 Ry
     estimated scf accuracy    <          8.1E-10 Ry

     convergence has been achieved in   6 iterations

     Forces acting on atoms (Ry/au):

     atom    1 type  2   force =    -0.02104338   -0.08746127    0.01447403
     atom    2 type  1   force =     0.00504685    0.00833520   -0.04129044
     atom    3 type  1   force =     0.01599653    0.07912607    0.02681641

     Total force =     0.131672     Total SCF correction =     0.000124

     Entering Dynamics:    iteration =    12
                           time      =   0.0058 pico-seconds


     Andersen thermostat:    3 collisions

ATOMIC_POSITIONS (angstrom)
O       -0.004347824   0.000865482   0.116941335
H        0.223669678   0.785439865  -0.318591428
H       -0.154793257  -0.799150467  -0.598739560


     kinetic energy (Ekin) =     0.15838558 Ry
     temperature           =  8335.69183886 K 
     Ekin + Etot (const)   =   -33.57441883 Ry
     Message from routine dynamics:
     Total linear momentum <> 0

     Linear momentum :    0.3895108744    0.2264726033   -0.5837450879

     Writing output data file pwscf.save

     second order wave-functions extrapolation
     Message from extrapolate_wfcs: 
     the matrix <psi(t-dt)|psi(t)> has  1 small (< 0.1) eigenvalues
     Check: negative starting charge=   -0.070835
     second order charge density extrapolation
     Check: negative starting charge=   -0.070744

     negative rho (up, down):  7.304E-03 0.000E+00

     total cpu time spent up to now is       16.4 secs

     per-process dynamical memory:    32.7 Mb

     Self-consistent Calculation

     iteration #  1     ecut=    60.00 Ry     beta=0.70
     Davidson diagonalization with overlap
     c_bands:  1 eigenvalues not converged
     ethr =  1.00E-06,  avg # of iterations = 20.0

     negative rho (up, down):  1.777E-03 0.000E+00

     total cpu time spent up to now is       16.6 secs

     total energy              =     -33.71745194 Ry
     Harris-Foulkes estimate   =     -33.71177069 Ry
     estimated scf accuracy    <       0.00174247 Ry

     iteration #  2     ecut=    60.00 Ry     beta=0.70
     Davidson diagonalization with overlap
     ethr =  2.18E-05,  avg # of iterations =  6.0

     negative rho (up, down):  8.067E-04 0.000E+00

     total cpu time spent up to now is       16.7 secs

     total energy              =     -33.71801857 Ry
     Harris-Foulkes estimate   =     -33.71795513 Ry
     estimated scf accuracy    <       0.00060126 Ry

     iteration #  3     ecut=    60.00 Ry     beta=0.70
     Davidson diagonalization with overlap
     ethr =  7.52E-06,  avg # of iterations = 18.0

     negative rho (up, down):  1.062E-04 0.000E+00

     total cpu time spent up to now is       16.8 secs

     total energy              =     -33.71818895 Ry
     Harris-Foulkes estimate   =     -33.71822519 Ry
     estimated scf accuracy    <       0.00012283 Ry

     iteration #  4     ecut=    60.00 Ry     beta=0.70
     Davidson diagonalization with overlap
     ethr =  1.54E-06,  avg # of iterations =  6.0

     negative rho (up, down):  4.269E-06 0.000E+00

     total cpu time spent up to now is       17.0 secs

     total energy              =     -33.71821281 Ry
     Harris-Foulkes estimate   =     -33.71821493 Ry
     estimated scf accuracy    <       0.00000181 Ry

     iteration #  5     ecut=    60.00 Ry     beta=0.70
     Davidson diagonalization with overlap
     ethr =  2.26E-08,  avg # of iterations =  2.0

     negative rho (up, down):  1.054E-08 0.000E+00

     total cpu time spent up to now is       17.0 secs

     total energy              =     -33.72229036 Ry
     Harris-Foulkes estimate   =     -33.72229079 Ry
     estimated scf accuracy    <       0.00000004 Ry

     iteration #  6     ecut=    60.00 Ry     beta=0.70
     Davidson diagonalization with overlap
     ethr =  5.29E-10,  avg # of iterations =  2.0

     total cpu time spent up to now is       17.1 secs

     End of self-consistent calculation

          k = 0.0000 0.0000 0.0000 ( 62669 PWs)   bands (ev):

   -25.1233 -12.8684  -8.8338  -6.9673  -1.0965   0.3258   0.7250   1.1156

     the Fermi energy is    -5.1040 ev

!    total energy              =     -33.72229027 Ry
     Harris-Foulkes estimate   =     -33.72229038 Ry
     estimated scf accuracy    <          2.2E-09 Ry

     convergence has been achieved in   6 iterations

     Forces acting on atoms (Ry/au):

     atom    1 type  2   force =    -0.05418788   -0.19652264    0.02476473
     atom    2 type  1   force =     0.03189078    0.09688994   -0.08422095
     atom    3 type  1   force =     0.02229709    0.09963270    0.05945622

     Total force =     0.271344     Total SCF correction =     0.000565

     Entering Dynamics:    iteration =    13
                           time      =   0.0063 pico-seconds


     Andersen thermostat:    3 collisions

ATOMIC_POSITIONS (angstrom)
O        0.003051912  -0.003133602   0.117469609
H        0.146492733   0.835605033  -0.274853069
H       -0.194839846  -0.785963808  -0.650846612


     kinetic energy (Ekin) =     0.29944771 Ry
     temperature           = 15759.66596367 K 
     Ekin + Etot (const)   =   -33.42284256 Ry
     Message from routine dynamics:
     Total linear momentum <> 0

     Linear momentum :   -1.3284840974   -0.6364536854    0.7101323532

     Writing output data file pwscf.save

     second order wave-functions extrapolation
     Check: negative starting charge=   -0.070744
     second order charge density extrapolation
     Check: negative starting charge=   -0.070599

     negative rho (up, down):  8.704E-03 0.000E+00

     total cpu time spent up to now is       17.8 secs

     per-process dynamical memory:    32.7 Mb

     Self-consistent Calculation

     iteration #  1     ecut=    60.00 Ry     beta=0.70
     Davidson diagonalization with overlap
     c_bands:  1 eigenvalues not converged
     ethr =  1.00E-06,  avg # of iterations = 20.0

     negative rho (up, down):  2.198E-03 0.000E+00

     total cpu time spent up to now is       18.0 secs

     total energy              =     -33.71117596 Ry
     Harris-Foulkes estimate   =     -33.70304940 Ry
     estimated scf accuracy    <       0.00126744 Ry

     iteration #  2     ecut=    60.00 Ry     beta=0.70
     Davidson diagonalization with overlap
     ethr =  1.58E-05,  avg # of iterations = 14.0

     negative rho (up, down):  8.360E-04 0.000E+00

     total cpu time spent up to now is       18.1 secs

     total energy              =     -33.71204617 Ry
     Harris-Foulkes estimate   =     -33.71141427 Ry
     estimated scf accuracy    <       0.00031440 Ry

     iteration #  3     ecut=    60.00 Ry     beta=0.70
     Davidson diagonalization with overlap
     ethr =  3.93E-06,  avg # of iterations =  5.0

     negative rho (up, down):  4.322E-05 0.000E+00

     total cpu time spent up to now is       18.2 secs

     total energy              =     -33.71214480 Ry
     Harris-Foulkes estimate   =     -33.71218581 Ry
     estimated scf accuracy    <       0.00015136 Ry

     iteration #  4     ecut=    60.00 Ry     beta=0.70
     Davidson diagonalization with overlap
     ethr =  1.89E-06,  avg # of iterations =  9.0

     negative rho (up, down):  6.505E-07 0.000E+00

     total cpu time spent up to now is       18.4 secs

     total energy              =     -33.71625089 Ry
     Harris-Foulkes estimate   =     -33.71625213 Ry
     estimated scf accuracy    <       0.00000111 Ry

     iteration #  5     ecut=    60.00 Ry     beta=0.70
     Davidson diagonalization with overlap
     ethr =  1.39E-08,  avg # of iterations =  2.0

     total cpu time spent up to now is       18.4 secs

     total energy              =     -33.71625093 Ry
     Harris-Foulkes estimate   =     -33.71625131 Ry
     estimated scf accuracy    <       0.00000005 Ry

     iteration #  6     ecut=    60.00 Ry     beta=0.70
     Davidson diagonalization with overlap
     ethr =  6.15E-10,  avg # of iterations =  2.0

     total cpu time spent up to now is       18.5 secs

     End of self-consistent calculation

          k = 0.0000 0.0000 0.0000 ( 62669 PWs)   bands (ev):

   -24.9332 -12.7251  -8.7494  -6.9250  -1.2064   0.2795   0.6888   1.1091

     the Fermi energy is    -5.0613 ev

!    total energy              =     -33.71625082 Ry
     Harris-Foulkes estimate   =     -33.71625095 Ry
     estimated scf accuracy    <          1.4E-09 Ry

     convergence has been achieved in   6 iterations

     Forces acting on atoms (Ry/au):

     atom    1 type  2   force =    -0.03699490   -0.19760591   -0.00679098
     atom    2 type  1   force =     0.01048682    0.07949056   -0.07141309
     atom    3 type  1   force =     0.02650807    0.11811536    0.07820407

     Total force =     0.269743     Total SCF correction =     0.000092

     Entering Dynamics:    iteration =    14
                           time      =   0.0068 pico-seconds


     Andersen thermostat:    3 collisions

ATOMIC_POSITIONS (angstrom)
O        0.005605081  -0.002877890   0.122034931
H        0.136857734   0.794454085  -0.331993875
H       -0.225651088  -0.748863751  -0.666027746


     kinetic energy (Ekin) =     0.14564629 Ry
     temperature           =  7665.23412403 K 
     Ekin + Etot (const)   =   -33.57060453 Ry
     Message from routine dynamics:
     Total linear momentum <> 0

     Linear momentum :    0.3648714943    0.2259623846   -1.0527216044

     Writing output data file pwscf.save

     second order wave-functions extrapolation
     Check: negative starting charge=   -0.070599
     second order charge density extrapolation
     Check: negative starting charge=   -0.070745

     negative rho (up, down):  5.270E-03 0.000E+00

     total cpu time spent up to now is       19.2 secs

     per-process dynamical memory:    32.7 Mb

     Self-consistent Calculation

     iteration #  1     ecut=    60.00 Ry     beta=0.70
     Davidson diagonalization with overlap
     c_bands:  1 eigenvalues not converged
     ethr =  1.00E-06,  avg # of iterations = 20.0

     negative rho (up, down):  1.306E-03 0.000E+00

     total cpu time spent up to now is       19.5 secs

     total energy              =     -33.71539906 Ry
     Harris-Foulkes estimate   =     -33.71111738 Ry
     estimated scf accuracy    <       0.00052556 Ry

     iteration #  2     ecut=    60.00 Ry     beta=0.70
     Davidson diagonalization with overlap
     ethr =  6.57E-06,  avg # of iterations = 14.0

     negative rho (up, down):  1.923E-04 0.000E+00

     total cpu time spent up to now is       19.6 secs

     total energy              =     -33.71556807 Ry
     Harris-Foulkes estimate   =     -33.71545786 Ry
     estimated scf accuracy    <       0.00004247 Ry

     iteration #  3     ecut=    60.00 Ry     beta=0.70
     Davidson diagonalization with overlap
     ethr =  5.31E-07,  avg # of iterations =  5.0

     negative rho (up, down):  7.609E-06 0.000E+00

     total cpu time spent up to now is       19.7 secs

     total energy              =     -33.71557155 Ry
     Harris-Foulkes estimate   =     -33.71557477 Ry
     estimated scf accuracy    <       0.00000529 Ry

     iteration #  4     ecut=    60.00 Ry     beta=0.70
     Davidson diagonalization with overlap
     ethr =  6.61E-08,  avg # of iterations =  3.0

     negative rho (up, down):  2.068E-07 0.000E+00

     total cpu time spent up to now is       19.8 secs

     total energy              =     -33.71965025 Ry
     Harris-Foulkes estimate   =     -33.71965102 Ry
     estimated scf accuracy    <       0.00000179 Ry

     iteration #  5     ecut=    60.00 Ry     beta=0.70
     Davidson diagonalization with overlap
     ethr =  2.24E-08,  avg # of iterations =  2.0

     total cpu time spent up to now is       19.9 secs

     total energy              =     -33.71965059 Ry
     Harris-Foulkes estimate   =     -33.71965065 Ry
     estimated scf accuracy    <       0.00000003 Ry

     iteration #  6     ecut=    60.00 Ry     beta=0.70
     Davidson diagonalization with overlap
     ethr =  3.59E-10,  avg # of iterations =  2.0

     total cpu time spent up to now is       19.9 secs

     End of self-consistent calculation

          k = 0.0000 0.0000 0.0000 ( 62669 PWs)   bands (ev):

   -25.1081 -12.5204  -9.0780  -6.9717  -1.1717   0.2934   0.7161   1.1123

     the Fermi energy is    -5.1027 ev

!    total energy              =     -33.71965063 Ry
     Harris-Foulkes estimate   =     -33.71965060 Ry
     estimated scf accuracy    <          5.3E-10 Ry

     convergence has been achieved in   6 iterations

     Forces acting on atoms (Ry/au):

     atom    1 type  2   force =    -0.04386104   -0.20393331   -0.01165453
     atom    2 type  1   force =     0.01589929    0.10745240   -0.07504589
     atom    3 type  1   force =     0.02796175    0.09648091    0.08670043

     Total force =     0.280511     Total SCF correction =     0.000043

     Entering Dynamics:    iteration =    15
                           time      =   0.0073 pico-seconds


     Andersen thermostat:    3 collisions

ATOMIC_POSITIONS (angstrom)
O        0.005824887   0.004284813   0.120875213
H        0.159515540   0.710640020  -0.287726461
H       -0.251790975  -0.778518240  -0.691923390


     kinetic energy (Ekin) =     0.24270606 Ry
     temperature           = 12773.40343868 K 
     Ekin + Etot (const)   =   -33.47694457 Ry
     Message from routine dynamics:
     Total linear momentum <> 0

     Linear momentum :   -1.0938684252   -0.1248440425    0.4699453889

     Writing output data file pwscf.save

     second order wave-functions extrapolation
     Check: negative starting charge=   -0.070745
     second order charge density extrapolation
     Check: negative starting charge=   -0.071000

     negative rho (up, down):  8.891E-03 0.000E+00

     total cpu time spent up to now is       20.5 secs

     per-process dynamical memory:    32.7 Mb

     Self-consistent Calculation

     iteration #  1     ecut=    60.00 Ry     beta=0.70
     Davidson diagonalization with overlap
     ethr =  1.00E-06,  avg # of iterations = 20.0

     negative rho (up, down):  2.169E-03 0.000E+00

     total cpu time spent up to now is       20.8 secs

     total energy              =     -33.64426095 Ry
     Harris-Foulkes estimate   =     -33.64171437 Ry
     estimated scf accuracy    <       0.00866785 Ry

     iteration #  2     ecut=    60.00 Ry     beta=0.70
     Davidson diagonalization with overlap
     ethr =  1.08E-04,  avg # of iterations =  4.0

     negative rho (up, down):  1.274E-03 0.000E+00

     total cpu time spent up to now is       20.9 secs

     total energy              =     -33.64614322 Ry
     Harris-Foulkes estimate   =     -33.64922149 Ry
     estimated scf accuracy    <       0.00766269 Ry

     iteration #  3     ecut=    60.00 Ry     beta=0.70
     Davidson diagonalization with overlap
     ethr =  9.58E-05,  avg # of iterations =  2.0

     negative rho (up, down):  1.193E-04 0.000E+00

     total cpu time spent up to now is       21.0 secs

     total energy              =     -33.64794335 Ry
     Harris-Foulkes estimate   =     -33.64786835 Ry
     estimated scf accuracy    <       0.00016917 Ry

     iteration #  4     ecut=    60.00 Ry     beta=0.70
     Davidson diagonalization with overlap
     ethr =  2.11E-06,  avg # of iterations = 19.0

     negative rho (up, down):  7.675E-06 0.000E+00

     total cpu time spent up to now is       21.2 secs

     total energy              =     -33.64797756 Ry
     Harris-Foulkes estimate   =     -33.64797925 Ry
     estimated scf accuracy    <       0.00000151 Ry

     iteration #  5     ecut=    60.00 Ry     beta=0.70
     Davidson diagonalization with overlap
     ethr =  1.89E-08,  avg # of iterations =  2.0

     negative rho (up, down):  2.399E-08 0.000E+00

     total cpu time spent up to now is       21.2 secs

     total energy              =     -33.64797707 Ry
     Harris-Foulkes estimate   =     -33.64797787 Ry
     estimated scf accuracy    <       0.00000009 Ry

     iteration #  6     ecut=    60.00 Ry     beta=0.70
     Davidson diagonalization with overlap
     ethr =  1.16E-09,  avg # of iterations =  2.0

     total cpu time spent up to now is       21.3 secs

     End of self-consistent calculation

          k = 0.0000 0.0000 0.0000 ( 62669 PWs)   bands (ev):

   -25.7172 -12.7523  -9.0773  -7.0286  -1.3071   0.2161   0.7847   1.1200

     the Fermi energy is    -6.7153 ev

!    total energy              =     -33.64797696 Ry
     Harris-Foulkes estimate   =     -33.64797709 Ry
     estimated scf accuracy    <          3.7E-09 Ry

     convergence has been achieved in   6 iterations

     Forces acting on atoms (Ry/au):

     atom    1 type  2   force =    -0.12824368   -0.54237869    0.14882348
     atom    2 type  1   force =     0.08970739    0.42030750   -0.26008202
     atom    3 type  1   force =     0.03853628    0.12207119    0.11125854

     Total force =     0.783507     Total SCF correction =     0.000749

     Entering Dynamics:    iteration =    16
                           time      =   0.0077 pico-seconds


     Andersen thermostat:    3 collisions

ATOMIC_POSITIONS (angstrom)
O        0.005287701   0.000341662   0.122923493
H        0.159959349   0.774056943  -0.289969773
H       -0.243724909  -0.779469410  -0.722128082


     kinetic energy (Ekin) =     0.07536798 Ry
     temperature           =  3966.54955396 K 
     Ekin + Etot (const)   =   -33.57260898 Ry
     Message from routine dynamics:
     Total linear momentum <> 0

     Linear momentum :   -0.5862793307    0.3658475150   -0.5061981998

     Writing output data file pwscf.save

     second order wave-functions extrapolation
     Check: negative starting charge=   -0.071000
     second order charge density extrapolation
     Check: negative starting charge=   -0.070709

     negative rho (up, down):  3.344E-03 0.000E+00

     total cpu time spent up to now is       21.9 secs

     per-process dynamical memory:    32.7 Mb

     Self-consistent Calculation

     iteration #  1     ecut=    60.00 Ry     beta=0.70
     Davidson diagonalization with overlap
     ethr =  1.00E-06,  avg # of iterations = 14.0

     negative rho (up, down):  8.229E-04 0.000E+00

     total cpu time spent up to now is       22.1 secs

     total energy              =     -33.68168669 Ry
     Harris-Foulkes estimate   =     -33.68092635 Ry
     estimated scf accuracy    <       0.00195239 Ry

     iteration #  2     ecut=    60.00 Ry     beta=0.70
     Davidson diagonalization with overlap
     ethr =  2.44E-05,  avg # of iterations =  5.0

     negative rho (up, down):  5.081E-04 0.000E+00

     total cpu time spent up to now is       22.3 secs

     total energy              =     -33.68612850 Ry
     Harris-Foulkes estimate   =     -33.68723979 Ry
     estimated scf accuracy    <       0.00242427 Ry

     iteration #  3     ecut=    60.00 Ry     beta=0.70
     Davidson diagonalization with overlap
     ethr =  2.44E-05,  avg # of iterations =  2.0

     negative rho (up, down):  3.231E-05 0.000E+00

     total cpu time spent up to now is       22.4 secs

     total energy              =     -33.68252922 Ry
     Harris-Foulkes estimate   =     -33.68253182 Ry
     estimated scf accuracy    <       0.00001271 Ry

     iteration #  4     ecut=    60.00 Ry     beta=0.70
     Davidson diagonalization with overlap
     ethr =  1.59E-07,  avg # of iterations =  8.0

     negative rho (up, down):  5.032E-07 0.000E+00

     total cpu time spent up to now is       22.5 secs

     total energy              =     -33.68253321 Ry
     Harris-Foulkes estimate   =     -33.68253291 Ry
     estimated scf accuracy    <       0.00000038 Ry

     iteration #  5     ecut=    60.00 Ry     beta=0.70
     Davidson diagonalization with overlap
     ethr =  4.69E-09,  avg # of iterations =  2.0

     total cpu time spent up to now is       22.6 secs

     total energy              =     -33.68253334 Ry
     Harris-Foulkes estimate   =     -33.68253328 Ry
     estimated scf accuracy    <       0.00000002 Ry

     iteration #  6     ecut=    60.00 Ry     beta=0.70
     Davidson diagonalization with overlap
     ethr =  1.95E-10,  avg # of iterations =  2.0

     total cpu time spent up to now is       22.6 secs

     End of self-consistent calculation

          k = 0.0000 0.0000 0.0000 ( 62669 PWs)   bands (ev):

   -25.1654 -12.4411  -8.9935  -6.9512  -1.4118   0.1884   0.7203   1.1113

     the Fermi energy is    -6.6379 ev

!    total energy              =     -33.68253339 Ry
     Harris-Foulkes estimate   =     -33.68253334 Ry
     estimated scf accuracy    <          8.4E-10 Ry

     convergence has been achieved in   6 iterations

     Forces acting on atoms (Ry/au):

     atom    1 type  2   force =    -0.07734251   -0.33008259    0.00943883
     atom    2 type  1   force =     0.03813014    0.20090096   -0.12828312
     atom    3 type  1   force =     0.03921236    0.12918163    0.11884429

     Total force =     0.453483     Total SCF correction =     0.000155

     Entering Dynamics:    iteration =    17
                           time      =   0.0082 pico-seconds


     Andersen thermostat:    3 collisions

ATOMIC_POSITIONS (angstrom)
O        0.005034877   0.002842948   0.124620888
H        0.182697161   0.765557768  -0.308596606
H       -0.262457586  -0.810594575  -0.730390673


     kinetic energy (Ekin) =     0.06585063 Ry
     temperature           =  3465.65975821 K 
     Ekin + Etot (const)   =   -33.61668276 Ry
     Message from routine dynamics:
     Total linear momentum <> 0

     Linear momentum :   -0.3088360506   -0.1318337770    1.2106141849

     Writing output data file pwscf.save

     second order wave-functions extrapolation
     Check: negative starting charge=   -0.070709
     second order charge density extrapolation
     Check: negative starting charge=   -0.070682

     negative rho (up, down):  2.425E-03 0.000E+00

     total cpu time spent up to now is       23.2 secs

     per-process dynamical memory:    32.7 Mb

     Self-consistent Calculation

     iteration #  1     ecut=    60.00 Ry     beta=0.70
     Davidson diagonalization with overlap
     c_bands:  1 eigenvalues not converged
     ethr =  1.00E-06,  avg # of iterations = 20.0

     negative rho (up, down):  5.835E-04 0.000E+00

     total cpu time spent up to now is       23.5 secs

     total energy              =     -33.67240914 Ry
     Harris-Foulkes estimate   =     -33.67190802 Ry
     estimated scf accuracy    <       0.00083727 Ry

     iteration #  2     ecut=    60.00 Ry     beta=0.70
     Davidson diagonalization with overlap
     ethr =  1.05E-05,  avg # of iterations =  5.0

     negative rho (up, down):  3.548E-04 0.000E+00

     total cpu time spent up to now is       23.6 secs

     total energy              =     -33.67660920 Ry
     Harris-Foulkes estimate   =     -33.67708444 Ry
     estimated scf accuracy    <       0.00104560 Ry

     iteration #  3     ecut=    60.00 Ry     beta=0.70
     Davidson diagonalization with overlap
     ethr =  1.05E-05,  avg # of iterations =  2.0

     negative rho (up, down):  6.019E-06 0.000E+00

     total cpu time spent up to now is       23.6 secs

     total energy              =     -33.67273938 Ry
     Harris-Foulkes estimate   =     -33.67274369 Ry
     estimated scf accuracy    <       0.00001115 Ry

     iteration #  4     ecut=    60.00 Ry     beta=0.70
     Davidson diagonalization with overlap
     ethr =  1.39E-07,  avg # of iterations =  9.0

     negative rho (up, down):  1.401E-07 0.000E+00

     total cpu time spent up to now is       23.7 secs

     total energy              =     -33.67274168 Ry
     Harris-Foulkes estimate   =     -33.67274175 Ry
     estimated scf accuracy    <       0.00000021 Ry

     iteration #  5     ecut=    60.00 Ry     beta=0.70
     Davidson diagonalization with overlap
     ethr =  2.62E-09,  avg # of iterations =  2.0

     total cpu time spent up to now is       23.8 secs

     total energy              =     -33.67274173 Ry
     Harris-Foulkes estimate   =     -33.67274172 Ry
     estimated scf accuracy    <       0.00000001 Ry

     iteration #  6     ecut=    60.00 Ry     beta=0.70
     Davidson diagonalization with overlap
     ethr =  1.42E-10,  avg # of iterations =  2.0

     total cpu time spent up to now is       23.9 secs

     End of self-consistent calculation

          k = 0.0000 0.0000 0.0000 ( 62669 PWs)   bands (ev):

   -25.0596 -12.2760  -8.9776  -6.9266  -1.5758   0.1380   0.7016   1.1025

     the Fermi energy is    -6.6133 ev

!    total energy              =     -33.67274175 Ry
     Harris-Foulkes estimate   =     -33.67274173 Ry
     estimated scf accuracy    <          3.9E-10 Ry

     convergence has been achieved in   6 iterations

     Forces acting on atoms (Ry/au):

     atom    1 type  2   force =    -0.08637464   -0.32596589   -0.00065695
     atom    2 type  1   force =     0.04129005    0.18419577   -0.12712361
     atom    3 type  1   force =     0.04508458    0.14177012    0.12778056

     Total force =     0.451627     Total SCF correction =     0.000158

     Entering Dynamics:    iteration =    18
                           time      =   0.0087 pico-seconds


     Andersen thermostat:    3 collisions

ATOMIC_POSITIONS (angstrom)
O        0.006361193   0.005075406   0.122824821
H        0.156316066   0.733802449  -0.295777801
H       -0.257087438  -0.814204920  -0.714756928


     kinetic energy (Ekin) =     0.05472041 Ry
     temperature           =  2879.88624881 K 
     Ekin + Etot (const)   =   -33.61802135 Ry
     Message from routine dynamics:
     Total linear momentum <> 0

     Linear momentum :    0.1865525496   -0.6827140574   -0.4076421045

     Writing output data file pwscf.save

     second order wave-functions extrapolation
     Check: negative starting charge=   -0.070682
     second order charge density extrapolation
     Check: negative starting charge=   -0.070863

     negative rho (up, down):  1.552E-03 0.000E+00

     total cpu time spent up to now is       24.5 secs

     per-process dynamical memory:    32.7 Mb

     Self-consistent Calculation

     iteration #  1     ecut=    60.00 Ry     beta=0.70
     Davidson diagonalization with overlap
     ethr =  1.00E-06,  avg # of iterations =  8.0

     negative rho (up, down):  3.571E-04 0.000E+00

     total cpu time spent up to now is       24.7 secs

     total energy              =     -33.65233830 Ry
     Harris-Foulkes estimate   =     -33.65211753 Ry
     estimated scf accuracy    <       0.00007096 Ry

     iteration #  2     ecut=    60.00 Ry     beta=0.70
     Davidson diagonalization with overlap
     ethr =  8.87E-07,  avg # of iterations =  6.0

     negative rho (up, down):  9.726E-05 0.000E+00

     total cpu time spent up to now is       24.8 secs

     total energy              =     -33.65234243 Ry
     Harris-Foulkes estimate   =     -33.65235093 Ry
     estimated scf accuracy    <       0.00001596 Ry

     iteration #  3     ecut=    60.00 Ry     beta=0.70
     Davidson diagonalization with overlap
     ethr =  2.00E-07,  avg # of iterations =  4.0

     negative rho (up, down):  3.052E-06 0.000E+00

     total cpu time spent up to now is       24.9 secs

     total energy              =     -33.65234386 Ry
     Harris-Foulkes estimate   =     -33.65234950 Ry
     estimated scf accuracy    <       0.00000904 Ry

     iteration #  4     ecut=    60.00 Ry     beta=0.70
     Davidson diagonalization with overlap
[...]

     the Fermi energy is    -4.9966 ev

!    total energy              =     -33.70235229 Ry
     Harris-Foulkes estimate   =     -33.70235244 Ry
     estimated scf accuracy    <          8.5E-09 Ry

     convergence has been achieved in   5 iterations

     Forces acting on atoms (Ry/au):

     atom    1 type  2   force =    -0.08599396    0.14466523   -0.10740000
     atom    2 type  1   force =     0.06822309   -0.12418384    0.07523311
     atom    3 type  1   force =     0.01777087   -0.02048139    0.03216689

     Total force =     0.259545     Total SCF correction =     0.001000

     Entering Dynamics:    iteration =   996
                           time      =   0.4818 pico-seconds


     Andersen thermostat:    3 collisions

ATOMIC_POSITIONS (angstrom)
O        0.036885978  -0.032386393   0.117052877
H       -0.432502816   0.890423310  -0.230609411
H       -0.151829502  -0.377371534  -0.688488587


     kinetic energy (Ekin) =     0.40989309 Ry
     temperature           = 21572.30744806 K 
     Ekin + Etot (const)   =   -33.29245921 Ry
     Message from routine dynamics:
     Total linear momentum <> 0

     Linear momentum :   -1.0185922069    0.5154105849    0.5922885360

     Writing output data file pwscf.save

     second order wave-functions extrapolation
     Check: negative starting charge=   -0.070959
     second order charge density extrapolation
     Check: negative starting charge=   -0.071205

     negative rho (up, down):  1.096E-02 0.000E+00

     total cpu time spent up to now is     1359.3 secs

     per-process dynamical memory:    32.7 Mb

     Self-consistent Calculation

     iteration #  1     ecut=    60.00 Ry     beta=0.70
     Davidson diagonalization with overlap
     c_bands:  1 eigenvalues not converged
     ethr =  1.00E-06,  avg # of iterations = 20.0

     negative rho (up, down):  2.782E-03 0.000E+00

     total cpu time spent up to now is     1359.5 secs

     total energy              =     -33.69441396 Ry
     Harris-Foulkes estimate   =     -33.68811080 Ry
     estimated scf accuracy    <       0.00650668 Ry

     iteration #  2     ecut=    60.00 Ry     beta=0.70
     Davidson diagonalization with overlap
     ethr =  8.13E-05,  avg # of iterations =  4.0

     negative rho (up, down):  1.673E-03 0.000E+00

     total cpu time spent up to now is     1359.6 secs

     total energy              =     -33.69664508 Ry
     Harris-Foulkes estimate   =     -33.69859729 Ry
     estimated scf accuracy    <       0.00628713 Ry

     iteration #  3     ecut=    60.00 Ry     beta=0.70
     Davidson diagonalization with overlap
     ethr =  7.86E-05,  avg # of iterations =  4.0

     negative rho (up, down):  1.906E-04 0.000E+00

     total cpu time spent up to now is     1359.7 secs

     total energy              =     -33.69830003 Ry
     Harris-Foulkes estimate   =     -33.69801014 Ry
     estimated scf accuracy    <       0.00008222 Ry

     iteration #  4     ecut=    60.00 Ry     beta=0.70
     Davidson diagonalization with overlap
     ethr =  1.03E-06,  avg # of iterations = 17.0

     negative rho (up, down):  4.198E-06 0.000E+00

     total cpu time spent up to now is     1359.9 secs

     total energy              =     -33.69831887 Ry
     Harris-Foulkes estimate   =     -33.69832163 Ry
     estimated scf accuracy    <       0.00000137 Ry

     iteration #  5     ecut=    60.00 Ry     beta=0.70
     Davidson diagonalization with overlap
     ethr =  1.71E-08,  avg # of iterations =  2.0

     total cpu time spent up to now is     1360.0 secs

     total energy              =     -33.69831853 Ry
     Harris-Foulkes estimate   =     -33.69831920 Ry
     estimated scf accuracy    <       0.00000006 Ry

     iteration #  6     ecut=    60.00 Ry     beta=0.70
     Davidson diagonalization with overlap
     ethr =  7.03E-10,  avg # of iterations =  2.0

     total cpu time spent up to now is     1360.0 secs

     End of self-consistent calculation

          k = 0.0000 0.0000 0.0000 ( 62669 PWs)   bands (ev):

   -25.7067 -11.8191 -10.0358  -7.1027  -1.1713   0.2999   0.7967   1.0933

     the Fermi energy is    -6.7894 ev

!    total energy              =     -33.69831842 Ry
     Harris-Foulkes estimate   =     -33.69831855 Ry
     estimated scf accuracy    <          3.8E-09 Ry

     convergence has been achieved in   6 iterations

     Forces acting on atoms (Ry/au):

     atom    1 type  2   force =    -0.02344482    0.19912598    0.12716744
     atom    2 type  1   force =     0.04965999   -0.06073237    0.06999813
     atom    3 type  1   force =    -0.02621517   -0.13839361   -0.19716557

     Total force =     0.355163     Total SCF correction =     0.000391

     Entering Dynamics:    iteration =   997
                           time      =   0.4823 pico-seconds


     Andersen thermostat:    3 collisions

ATOMIC_POSITIONS (angstrom)
O        0.041618758  -0.034679514   0.119019583
H       -0.473748240   0.881061589  -0.225524386
H       -0.185558813  -0.331683144  -0.724729343


     kinetic energy (Ekin) =     0.15375370 Ry
     temperature           =  8091.92018125 K 
     Ekin + Etot (const)   =   -33.54456471 Ry
     Message from routine dynamics:
     Total linear momentum <> 0

     Linear momentum :   -0.2094306732   -1.8063000399   -0.0946271898

     Writing output data file pwscf.save

     second order wave-functions extrapolation
     Check: negative starting charge=   -0.071205
     second order charge density extrapolation
     Check: negative starting charge=   -0.071216

     negative rho (up, down):  5.459E-03 0.000E+00

     total cpu time spent up to now is     1360.6 secs

     per-process dynamical memory:    32.7 Mb

     Self-consistent Calculation

     iteration #  1     ecut=    60.00 Ry     beta=0.70
     Davidson diagonalization with overlap
     c_bands:  1 eigenvalues not converged
     ethr =  1.00E-06,  avg # of iterations = 20.0

     negative rho (up, down):  1.373E-03 0.000E+00

     total cpu time spent up to now is     1360.9 secs

     total energy              =     -33.69671120 Ry
     Harris-Foulkes estimate   =     -33.69218403 Ry
     estimated scf accuracy    <       0.00053749 Ry

     iteration #  2     ecut=    60.00 Ry     beta=0.70
     Davidson diagonalization with overlap
     ethr =  6.72E-06,  avg # of iterations = 15.0

     negative rho (up, down):  7.383E-04 0.000E+00

     total cpu time spent up to now is     1361.0 secs

     total energy              =     -33.69687878 Ry
     Harris-Foulkes estimate   =     -33.69691969 Ry
     estimated scf accuracy    <       0.00032513 Ry

     iteration #  3     ecut=    60.00 Ry     beta=0.70
     Davidson diagonalization with overlap
     ethr =  4.06E-06,  avg # of iterations = 13.0

     negative rho (up, down):  6.432E-06 0.000E+00

     total cpu time spent up to now is     1361.1 secs

     total energy              =     -33.69697032 Ry
     Harris-Foulkes estimate   =     -33.69697366 Ry
     estimated scf accuracy    <       0.00003598 Ry

     iteration #  4     ecut=    60.00 Ry     beta=0.70
     Davidson diagonalization with overlap
     ethr =  4.50E-07,  avg # of iterations = 10.0

     total cpu time spent up to now is     1361.2 secs

     total energy              =     -33.69697650 Ry
     Harris-Foulkes estimate   =     -33.69697670 Ry
     estimated scf accuracy    <       0.00000013 Ry

     iteration #  5     ecut=    60.00 Ry     beta=0.70
     Davidson diagonalization with overlap
     ethr =  1.63E-09,  avg # of iterations =  3.0

     total cpu time spent up to now is     1361.3 secs

     total energy              =     -33.69697646 Ry
     Harris-Foulkes estimate   =     -33.69697659 Ry
     estimated scf accuracy    <       0.00000002 Ry

     iteration #  6     ecut=    60.00 Ry     beta=0.70
     Davidson diagonalization with overlap
     ethr =  2.47E-10,  avg # of iterations =  2.0

     total cpu time spent up to now is     1361.4 secs

     End of self-consistent calculation

          k = 0.0000 0.0000 0.0000 ( 62669 PWs)   bands (ev):

   -25.5532 -11.4139 -10.2549  -7.0913  -1.2647   0.2752   0.7665   1.0878

     the Fermi energy is    -6.7780 ev

!    total energy              =     -33.69697645 Ry
     Harris-Foulkes estimate   =     -33.69697646 Ry
     estimated scf accuracy    <          1.1E-09 Ry

     convergence has been achieved in   6 iterations

     Forces acting on atoms (Ry/au):

     atom    1 type  2   force =    -0.04713711    0.16985890    0.05495628
     atom    2 type  1   force =     0.05707929   -0.05701317    0.08132037
     atom    3 type  1   force =    -0.00994218   -0.11284573   -0.13627665

     Total force =     0.280393     Total SCF correction =     0.000039

     Entering Dynamics:    iteration =   998
                           time      =   0.4828 pico-seconds


     Andersen thermostat:    3 collisions

ATOMIC_POSITIONS (angstrom)
O        0.043845863  -0.030353862   0.122898709
H       -0.470574492   0.851994149  -0.249544673
H       -0.224013436  -0.371140894  -0.762160566


     kinetic energy (Ekin) =     0.14381908 Ry
     temperature           =  7569.07012892 K 
     Ekin + Etot (const)   =   -33.55315737 Ry
     Message from routine dynamics:
     Total linear momentum <> 0

     Linear momentum :    0.5912435034    0.9996031312    1.5772054593

     Writing output data file pwscf.save

     second order wave-functions extrapolation
     Check: negative starting charge=   -0.071216
     second order charge density extrapolation
     Check: negative starting charge=   -0.071321

     negative rho (up, down):  6.882E-03 0.000E+00

     total cpu time spent up to now is     1362.0 secs

     per-process dynamical memory:    32.7 Mb

     Self-consistent Calculation

     iteration #  1     ecut=    60.00 Ry     beta=0.70
     Davidson diagonalization with overlap
     c_bands:  1 eigenvalues not converged
     ethr =  1.00E-06,  avg # of iterations = 20.0

     negative rho (up, down):  1.750E-03 0.000E+00

     total cpu time spent up to now is     1362.2 secs

     total energy              =     -33.70789257 Ry
     Harris-Foulkes estimate   =     -33.70221800 Ry
     estimated scf accuracy    <       0.00124395 Ry

     iteration #  2     ecut=    60.00 Ry     beta=0.70
     Davidson diagonalization with overlap
     ethr =  1.55E-05,  avg # of iterations = 11.0

     negative rho (up, down):  9.339E-04 0.000E+00

     total cpu time spent up to now is     1362.3 secs

     total energy              =     -33.70832851 Ry
     Harris-Foulkes estimate   =     -33.70835754 Ry
     estimated scf accuracy    <       0.00069931 Ry

     iteration #  3     ecut=    60.00 Ry     beta=0.70
     Davidson diagonalization with overlap
     ethr =  8.74E-06,  avg # of iterations =  5.0

     negative rho (up, down):  6.894E-05 0.000E+00

     total cpu time spent up to now is     1362.4 secs

     total energy              =     -33.70852952 Ry
     Harris-Foulkes estimate   =     -33.70853858 Ry
     estimated scf accuracy    <       0.00008621 Ry

     iteration #  4     ecut=    60.00 Ry     beta=0.70
     Davidson diagonalization with overlap
     ethr =  1.08E-06,  avg # of iterations = 16.0

     negative rho (up, down):  1.325E-06 0.000E+00

     total cpu time spent up to now is     1362.6 secs

     total energy              =     -33.71262233 Ry
     Harris-Foulkes estimate   =     -33.71262347 Ry
     estimated scf accuracy    <       0.00000060 Ry

     iteration #  5     ecut=    60.00 Ry     beta=0.70
     Davidson diagonalization with overlap
     ethr =  7.48E-09,  avg # of iterations =  2.0

     total cpu time spent up to now is     1362.7 secs

     total energy              =     -33.71262252 Ry
     Harris-Foulkes estimate   =     -33.71262256 Ry
     estimated scf accuracy    <       0.00000003 Ry

     iteration #  6     ecut=    60.00 Ry     beta=0.70
     Davidson diagonalization with overlap
     ethr =  3.92E-10,  avg # of iterations =  2.0

     total cpu time spent up to now is     1362.7 secs

     End of self-consistent calculation

          k = 0.0000 0.0000 0.0000 ( 62669 PWs)   bands (ev):

   -25.2345 -11.1695 -10.3128  -7.0560  -1.2642   0.2943   0.6946   1.0833

     the Fermi energy is    -5.1560 ev

!    total energy              =     -33.71262250 Ry
     Harris-Foulkes estimate   =     -33.71262253 Ry
     estimated scf accuracy    <          1.1E-09 Ry

     convergence has been achieved in   6 iterations

     Forces acting on atoms (Ry/au):

     atom    1 type  2   force =    -0.07096660    0.10820227   -0.06125955
     atom    2 type  1   force =     0.05142041   -0.03807672    0.07964106
     atom    3 type  1   force =     0.01954619   -0.07012554   -0.01838151

     Total force =     0.191235     Total SCF correction =     0.000390

     Entering Dynamics:    iteration =   999
                           time      =   0.4833 pico-seconds


     Andersen thermostat:    3 collisions

ATOMIC_POSITIONS (angstrom)
O        0.047151645  -0.028832031   0.120988709
H       -0.483890863   0.825110372  -0.240131671
H       -0.263065896  -0.368365328  -0.741316136


     kinetic energy (Ekin) =     0.06386088 Ry
     temperature           =  3360.94093912 K 
     Ekin + Etot (const)   =   -33.64876163 Ry
     Message from routine dynamics:
     Total linear momentum <> 0

     Linear momentum :   -0.8778744577   -0.0452879062    0.2917162810

     Writing output data file pwscf.save

     second order wave-functions extrapolation
     Check: negative starting charge=   -0.071321
     second order charge density extrapolation
     Check: negative starting charge=   -0.071449

     negative rho (up, down):  4.286E-03 0.000E+00

     total cpu time spent up to now is     1363.4 secs

     per-process dynamical memory:    32.7 Mb

     Self-consistent Calculation

     iteration #  1     ecut=    60.00 Ry     beta=0.70
     Davidson diagonalization with overlap
     ethr =  1.00E-06,  avg # of iterations = 19.0

     negative rho (up, down):  1.066E-03 0.000E+00

     total cpu time spent up to now is     1363.6 secs

     total energy              =     -33.70691336 Ry
     Harris-Foulkes estimate   =     -33.70450248 Ry
     estimated scf accuracy    <       0.00111244 Ry

     iteration #  2     ecut=    60.00 Ry     beta=0.70
     Davidson diagonalization with overlap
     ethr =  1.39E-05,  avg # of iterations =  7.0

     negative rho (up, down):  6.424E-04 0.000E+00

     total cpu time spent up to now is     1363.7 secs

     total energy              =     -33.70714847 Ry
     Harris-Foulkes estimate   =     -33.70767495 Ry
     estimated scf accuracy    <       0.00120426 Ry

     iteration #  3     ecut=    60.00 Ry     beta=0.70
     Davidson diagonalization with overlap
     ethr =  1.39E-05,  avg # of iterations =  2.0

     negative rho (up, down):  4.070E-05 0.000E+00

     total cpu time spent up to now is     1363.8 secs

     total energy              =     -33.70740668 Ry
     Harris-Foulkes estimate   =     -33.70740326 Ry
     estimated scf accuracy    <       0.00001447 Ry

     iteration #  4     ecut=    60.00 Ry     beta=0.70
     Davidson diagonalization with overlap
     ethr =  1.81E-07,  avg # of iterations = 16.0

     negative rho (up, down):  2.675E-07 0.000E+00

     total cpu time spent up to now is     1363.9 secs

     total energy              =     -33.71148758 Ry
     Harris-Foulkes estimate   =     -33.71148793 Ry
     estimated scf accuracy    <       0.00000024 Ry

     iteration #  5     ecut=    60.00 Ry     beta=0.70
     Davidson diagonalization with overlap
     ethr =  2.94E-09,  avg # of iterations =  2.0

     total cpu time spent up to now is     1364.0 secs

     total energy              =     -33.71148768 Ry
     Harris-Foulkes estimate   =     -33.71148765 Ry
     estimated scf accuracy    <       0.00000001 Ry

     iteration #  6     ecut=    60.00 Ry     beta=0.70
     Davidson diagonalization with overlap
     ethr =  1.60E-10,  avg # of iterations =  2.0

     total cpu time spent up to now is     1364.1 secs

     End of self-consistent calculation

          k = 0.0000 0.0000 0.0000 ( 62669 PWs)   bands (ev):

   -25.4015 -11.1796 -10.4099  -7.0839  -1.2225   0.3073   0.7357   1.0838

     the Fermi energy is    -5.1974 ev

!    total energy              =     -33.71148766 Ry
     Harris-Foulkes estimate   =     -33.71148769 Ry
     estimated scf accuracy    <          1.0E-09 Ry

     convergence has been achieved in   6 iterations

     Forces acting on atoms (Ry/au):

     atom    1 type  2   force =    -0.06422156    0.09882102   -0.04554299
     atom    2 type  1   force =     0.04707276   -0.01570405    0.07785207
     atom    3 type  1   force =     0.01714880   -0.08311696   -0.03230909

     Total force =     0.180925     Total SCF correction =     0.000138

     Entering Dynamics:    iteration =  1000
                           time      =   0.4838 pico-seconds


     Andersen thermostat:    3 collisions

ATOMIC_POSITIONS (angstrom)
O        0.049488544  -0.026989612   0.122809284
H       -0.464695493   0.840819853  -0.262281931
H       -0.319281442  -0.413261650  -0.748006673


     kinetic energy (Ekin) =     0.12616846 Ry
     temperature           =  6640.13332739 K 
     Ekin + Etot (const)   =   -33.58531920 Ry
     Message from routine dynamics:
     Total linear momentum <> 0

     Linear momentum :    0.3481513015   -0.5293885238   -1.1334402993

     The maximum number of steps has been reached.

     End of molecular dynamics calculation

     diffusion coefficients :
     atom     1   D =       0.00000011 cm^2/s
     atom     2   D =       0.00000924 cm^2/s
     atom     3   D =       0.00001026 cm^2/s

     < D > =       0.00000654 cm^2/s

     Writing output data file pwscf.save
 
     init_run     :      0.26s CPU      0.28s WALL (       1 calls)
     electrons    :    651.64s CPU    821.51s WALL (    1000 calls)
     update_pot   :    279.36s CPU    374.09s WALL (     999 calls)
     forces       :     62.76s CPU     69.29s WALL (    1000 calls)

     Called by init_run:
     wfcinit      :      0.03s CPU      0.03s WALL (       1 calls)
     potinit      :      0.06s CPU      0.06s WALL (       1 calls)

     Called by electrons:
     c_bands      :    333.88s CPU    341.43s WALL (    5757 calls)
     sum_band     :     46.85s CPU     49.07s WALL (    5757 calls)
     v_of_rho     :    137.96s CPU    142.29s WALL (    6757 calls)
     mix_rho      :     63.25s CPU    113.06s WALL (    5757 calls)

     Called by c_bands:
     init_us_2    :      1.77s CPU      2.02s WALL (   11515 calls)
     cegterg      :    331.42s CPU    337.32s WALL (    5757 calls)

     Called by sum_band:

     Called by *egterg:
     h_psi        :    270.08s CPU    274.62s WALL (   54957 calls)
     g_psi        :      3.20s CPU      3.25s WALL (   49199 calls)
     cdiaghg      :     13.01s CPU     13.37s WALL (   53957 calls)

     Called by h_psi:
     h_psi:pot    :    267.34s CPU    271.82s WALL (   54957 calls)
     h_psi:calbec :      5.46s CPU      6.29s WALL (   54957 calls)
     vloc_psi     :    260.73s CPU    264.37s WALL (   54957 calls)
     add_vuspsi   :      0.88s CPU      0.90s WALL (   54957 calls)

     General routines
     calbec       :     22.67s CPU     30.11s WALL (   59955 calls)
     fft          :     92.87s CPU     97.45s WALL (   76326 calls)
     fftw         :    258.17s CPU    262.63s WALL (  457982 calls)
     davcio       :      7.05s CPU     47.80s WALL (   40091 calls)
 
     Parallel routines
     fft_scatter  :    125.32s CPU    131.57s WALL (  534308 calls)
 
     PWSCF        : 17m13.94s CPU    22m44.54s WALL

 
   This run was terminated on:  21:22: 2  19Apr2018            

=------------------------------------------------------------------------------=
   JOB DONE.
=------------------------------------------------------------------------------=
